
     Program PWSCF v.6.3 starts on 11Feb2019 at 11:26:29 

     This program is part of the open-source Quantum ESPRESSO suite
     for quantum simulation of materials; please cite
         "P. Giannozzi et al., J. Phys.:Condens. Matter 21 395502 (2009);
         "P. Giannozzi et al., J. Phys.:Condens. Matter 29 465901 (2017);
          URL http://www.quantum-espresso.org", 
     in publications or presentations arising from this work. More details at
     http://www.quantum-espresso.org/quote

     Parallel version (MPI), running on     2 processors

     MPI processes distributed on     1 nodes
     R & G space division:  proc/nbgrp/npool/nimage =       2
     Reading input from wd/execdir/heat_002.in
Warning: card &IONS ignored
Warning: card ION_DYNAMICS = 'BFGS', ignored
Warning: card / ignored
Warning: card &CELL ignored
Warning: card CELL_DYNAMICS = 'BFGS', ignored
Warning: card CELL_FACTOR = 2.0, ignored
Warning: card PRESS = 0.0, ignored
Warning: card / ignored

     Current dimensions of program PWSCF are:
     Max number of different atomic species (ntypx) = 10
     Max number of k-points (npk) =  40000
     Max angular momentum in pseudopotentials (lmaxx) =  3
               file Al.pbe-nl-kjpaw_psl.1.0.0.UPF: wavefunction(s)  3S 3P renormalized

     Subspace diagonalization in iterative solution of the eigenvalue problem:
     a serial algorithm will be used


     Parallelization info
     --------------------
     sticks:   dense  smooth     PW     G-vecs:    dense   smooth      PW
     Min        2082    1458    396               100742    58892    8414
     Max        2083    1459    397               100743    58893    8417
     Sum        4165    2917    793               201485   117785   16831



     bravais-lattice index     =            0
     lattice parameter (alat)  =      16.1564  a.u.
     unit-cell volume          =    4217.3116 (a.u.)^3
     number of atoms/cell      =           32
     number of atomic types    =            1
     number of electrons       =        96.00
     number of Kohn-Sham states=           58
     kinetic-energy cutoff     =      35.0000  Ry
     charge density cutoff     =     200.0000  Ry
     convergence threshold     =      1.0E-06
     mixing beta               =       0.1000
     number of iterations used =           10  TF        mixing
     Exchange-correlation      = SLA PW PBX PBC ( 1  4  3  4 0 0)

     celldm(1)=  16.156424  celldm(2)=   0.000000  celldm(3)=   0.000000
     celldm(4)=   0.000000  celldm(5)=   0.000000  celldm(6)=   0.000000

     crystal axes: (cart. coord. in units of alat)
               a(1) = (   1.000000   0.000000   0.000000 )  
               a(2) = (   0.000000   1.000000   0.000000 )  
               a(3) = (   0.000000   0.000000   1.000000 )  

     reciprocal axes: (cart. coord. in units 2 pi/alat)
               b(1) = (  1.000000  0.000000  0.000000 )  
               b(2) = (  0.000000  1.000000  0.000000 )  
               b(3) = (  0.000000  0.000000  1.000000 )  


     PseudoPot. # 1 for Al read from file:
     /opt/pp/Al.pbe-nl-kjpaw_psl.1.0.0.UPF
     MD5 check sum: 1b67f78b73fe58c7924490f171ce8a1e
     Pseudo is Projector augmented-wave + core cor, Zval =  3.0
     Generated using "atomic" code by A. Dal Corso v.6.3
     Shape of augmentation charge: PSQ
     Using radial grid of 1135 points,  4 beta functions with: 
                l(1) =   0
                l(2) =   0
                l(3) =   1
                l(4) =   1
     Q(r) pseudized with 0 coefficients 


     atomic species   valence    mass     pseudopotential
        Al             3.00    26.98200     Al( 1.00)

     No symmetry found



   Cartesian axes

     site n.     atom                  positions (alat units)
         1           Al  tau(   1) = (  -0.0000159  -0.0008705   0.0016335  )
         2           Al  tau(   2) = (   0.2491405   0.2499479  -0.0024070  )
         3           Al  tau(   3) = (   0.2491075   0.0029313   0.2501791  )
         4           Al  tau(   4) = (   0.0038962   0.2525359   0.2527951  )
         5           Al  tau(   5) = (   0.0011501  -0.0014222   0.5009670  )
         6           Al  tau(   6) = (   0.2501353   0.2498539   0.5000598  )
         7           Al  tau(   7) = (   0.2526019  -0.0029739   0.7504933  )
         8           Al  tau(   8) = (   0.0004511   0.2516961   0.7506153  )
         9           Al  tau(   9) = (   0.0009512   0.4994210   0.0014391  )
        10           Al  tau(  10) = (   0.2545292   0.7542799   0.0038618  )
        11           Al  tau(  11) = (   0.2508861   0.5034297   0.2510971  )
        12           Al  tau(  12) = (   0.0027785   0.7504309   0.2501149  )
        13           Al  tau(  13) = (   0.0009382   0.5023826   0.4987131  )
        14           Al  tau(  14) = (   0.2540413   0.7510611   0.5016759  )
        15           Al  tau(  15) = (   0.2489133   0.4984655   0.7476068  )
        16           Al  tau(  16) = (  -0.0038695   0.7505639   0.7532615  )
        17           Al  tau(  17) = (   0.5000018   0.0003280   0.0020332  )
        18           Al  tau(  18) = (   0.7514908   0.2476240  -0.0065181  )
        19           Al  tau(  19) = (   0.7503074   0.0001018   0.2518823  )
        20           Al  tau(  20) = (   0.4980800   0.2474067   0.2487355  )
        21           Al  tau(  21) = (   0.5031941  -0.0018631   0.5021786  )
        22           Al  tau(  22) = (   0.7444971   0.2503678   0.4998949  )
        23           Al  tau(  23) = (   0.7477082   0.0025549   0.7526889  )
        24           Al  tau(  24) = (   0.4989238   0.2506025   0.7483907  )
        25           Al  tau(  25) = (   0.5016764   0.4948498  -0.0025515  )
        26           Al  tau(  26) = (   0.7522569   0.7566555   0.0016469  )
        27           Al  tau(  27) = (   0.7504272   0.5015942   0.2512007  )
        28           Al  tau(  28) = (   0.4976384   0.7493603   0.2485525  )
        29           Al  tau(  29) = (   0.5046195   0.4993168   0.5017930  )
        30           Al  tau(  30) = (   0.7491952   0.7465831   0.4987801  )
        31           Al  tau(  31) = (   0.7526711   0.4980052   0.7499231  )
        32           Al  tau(  32) = (   0.4978631   0.7489811   0.7490021  )

     number of k points=    32  Marzari-Vanderbilt smearing, width (Ry)=  0.0200
                       cart. coord. in units 2pi/alat
        k(    1) = (   0.1250000   0.1250000   0.1250000), wk =   0.0625000
        k(    2) = (   0.1250000   0.1250000   0.3750000), wk =   0.0625000
        k(    3) = (   0.1250000   0.3750000   0.3750000), wk =   0.0625000
        k(    4) = (   0.3750000   0.3750000   0.3750000), wk =   0.0625000
        k(    5) = (  -0.1250000  -0.1250000   0.1250000), wk =   0.0625000
        k(    6) = (  -0.1250000   0.1250000  -0.1250000), wk =   0.0625000
        k(    7) = (   0.1250000  -0.1250000  -0.1250000), wk =   0.0625000
        k(    8) = (  -0.1250000  -0.1250000   0.3750000), wk =   0.0625000
        k(    9) = (  -0.1250000   0.1250000  -0.3750000), wk =   0.0625000
        k(   10) = (   0.1250000  -0.1250000  -0.3750000), wk =   0.0625000
        k(   11) = (   0.3750000  -0.1250000   0.1250000), wk =   0.0625000
        k(   12) = (  -0.3750000  -0.1250000  -0.1250000), wk =   0.0625000
        k(   13) = (   0.3750000   0.1250000  -0.1250000), wk =   0.0625000
        k(   14) = (  -0.3750000   0.1250000   0.1250000), wk =   0.0625000
        k(   15) = (  -0.1250000   0.3750000   0.1250000), wk =   0.0625000
        k(   16) = (  -0.1250000  -0.3750000  -0.1250000), wk =   0.0625000
        k(   17) = (   0.1250000   0.3750000  -0.1250000), wk =   0.0625000
        k(   18) = (   0.1250000  -0.3750000   0.1250000), wk =   0.0625000
        k(   19) = (  -0.1250000  -0.3750000   0.3750000), wk =   0.0625000
        k(   20) = (  -0.1250000   0.3750000  -0.3750000), wk =   0.0625000
        k(   21) = (   0.1250000  -0.3750000  -0.3750000), wk =   0.0625000
        k(   22) = (   0.3750000   0.1250000  -0.3750000), wk =   0.0625000
        k(   23) = (  -0.3750000  -0.1250000  -0.3750000), wk =   0.0625000
        k(   24) = (   0.3750000  -0.1250000   0.3750000), wk =   0.0625000
        k(   25) = (  -0.3750000   0.1250000   0.3750000), wk =   0.0625000
        k(   26) = (   0.3750000  -0.3750000   0.1250000), wk =   0.0625000
        k(   27) = (  -0.3750000  -0.3750000  -0.1250000), wk =   0.0625000
        k(   28) = (   0.3750000   0.3750000  -0.1250000), wk =   0.0625000
        k(   29) = (  -0.3750000   0.3750000   0.1250000), wk =   0.0625000
        k(   30) = (  -0.3750000  -0.3750000   0.3750000), wk =   0.0625000
        k(   31) = (  -0.3750000   0.3750000  -0.3750000), wk =   0.0625000
        k(   32) = (   0.3750000  -0.3750000  -0.3750000), wk =   0.0625000

     Dense  grid:   201485 G-vectors     FFT dimensions: (  75,  75,  75)

     Smooth grid:   117785 G-vectors     FFT dimensions: (  64,  64,  64)

     Estimated max dynamical RAM per process >     518.75 MB

     Estimated total dynamical RAM >       1.01 GB

     Initial potential from superposition of free atoms

     starting charge   95.92671, renormalised to   96.00000
     Starting wfcs are  128 randomized atomic wfcs
     Checking if some PAW data can be deallocated... 

     total cpu time spent up to now is       71.6 secs

     Self-consistent Calculation

     iteration #  1     ecut=    35.00 Ry     beta= 0.10
     Davidson diagonalization with overlap
     ethr =  1.00E-02,  avg # of iterations =  3.0

     Threshold (ethr) on eigenvalues was too large:
     Diagonalizing with lowered threshold

     Davidson diagonalization with overlap
     ethr =  1.93E-04,  avg # of iterations =  4.0

     total cpu time spent up to now is      316.6 secs

     total energy              =   -1263.89864610 Ry
     Harris-Foulkes estimate   =   -1263.90484096 Ry
     estimated scf accuracy    <       0.18051699 Ry

     iteration #  2     ecut=    35.00 Ry     beta= 0.10
     Davidson diagonalization with overlap
     ethr =  1.88E-04,  avg # of iterations =  1.0

     total cpu time spent up to now is      395.3 secs

     total energy              =   -1263.85031607 Ry
     Harris-Foulkes estimate   =   -1263.89960163 Ry
     estimated scf accuracy    <       0.15713319 Ry

     iteration #  3     ecut=    35.00 Ry     beta= 0.10
     Davidson diagonalization with overlap
     ethr =  1.64E-04,  avg # of iterations =  1.0

     total cpu time spent up to now is      478.0 secs

     total energy              =   -1263.85461436 Ry
     Harris-Foulkes estimate   =   -1263.85489718 Ry
     estimated scf accuracy    <       0.00064222 Ry

     iteration #  4     ecut=    35.00 Ry     beta= 0.10
     Davidson diagonalization with overlap
     ethr =  6.69E-07,  avg # of iterations =  5.5

     total cpu time spent up to now is      666.4 secs

     total energy              =   -1263.85593176 Ry
     Harris-Foulkes estimate   =   -1263.85596074 Ry
     estimated scf accuracy    <       0.00076704 Ry

     iteration #  5     ecut=    35.00 Ry     beta= 0.10
     Davidson diagonalization with overlap
     ethr =  6.69E-07,  avg # of iterations =  1.0

     total cpu time spent up to now is      743.9 secs

     total energy              =   -1263.85504935 Ry
     Harris-Foulkes estimate   =   -1263.85593381 Ry
     estimated scf accuracy    <       0.00074604 Ry

     iteration #  6     ecut=    35.00 Ry     beta= 0.10
     Davidson diagonalization with overlap
     ethr =  6.69E-07,  avg # of iterations =  2.0

     total cpu time spent up to now is      841.9 secs

     total energy              =   -1263.85521541 Ry
     Harris-Foulkes estimate   =   -1263.85517854 Ry
     estimated scf accuracy    <       0.00005300 Ry

     iteration #  7     ecut=    35.00 Ry     beta= 0.10
     Davidson diagonalization with overlap
     ethr =  5.52E-08,  avg # of iterations =  3.4

     total cpu time spent up to now is      953.4 secs

     total energy              =   -1263.85523101 Ry
     Harris-Foulkes estimate   =   -1263.85522751 Ry
     estimated scf accuracy    <       0.00001977 Ry

     iteration #  8     ecut=    35.00 Ry     beta= 0.10
     Davidson diagonalization with overlap
     ethr =  2.06E-08,  avg # of iterations =  1.0

     total cpu time spent up to now is     1036.1 secs

     total energy              =   -1263.85521452 Ry
     Harris-Foulkes estimate   =   -1263.85523153 Ry
     estimated scf accuracy    <       0.00002439 Ry

     iteration #  9     ecut=    35.00 Ry     beta= 0.10
     Davidson diagonalization with overlap
     ethr =  2.06E-08,  avg # of iterations =  2.9

     total cpu time spent up to now is     1140.0 secs

     total energy              =   -1263.85521896 Ry
     Harris-Foulkes estimate   =   -1263.85521921 Ry
     estimated scf accuracy    <       0.00000122 Ry

     iteration # 10     ecut=    35.00 Ry     beta= 0.10
     Davidson diagonalization with overlap
     ethr =  1.27E-09,  avg # of iterations =  3.3

     total cpu time spent up to now is     1260.6 secs

     total energy              =   -1263.85521924 Ry
     Harris-Foulkes estimate   =   -1263.85521938 Ry
     estimated scf accuracy    <       0.00000272 Ry

     iteration # 11     ecut=    35.00 Ry     beta= 0.10
     Davidson diagonalization with overlap
     ethr =  1.27E-09,  avg # of iterations =  1.0

     total cpu time spent up to now is     1337.2 secs

     total energy              =   -1263.85521853 Ry
     Harris-Foulkes estimate   =   -1263.85521925 Ry
     estimated scf accuracy    <       0.00000222 Ry

     iteration # 12     ecut=    35.00 Ry     beta= 0.10
     Davidson diagonalization with overlap
     ethr =  1.27E-09,  avg # of iterations =  2.2

     total cpu time spent up to now is     1441.3 secs

     End of self-consistent calculation

          k = 0.1250 0.1250 0.1250 ( 14765 PWs)   bands (ev):

    -3.6621  -2.1777  -2.1543  -2.1242  -1.1801  -1.1540  -1.1243  -0.6779
    -0.6528  -0.6253   0.2810   0.3158   0.3400   0.3500   0.3591   0.3706
     0.8346   1.2947   1.3198   1.3492   1.7876   1.8071   1.8200   2.7869
     2.8044   2.8199   3.1997   3.2149   3.2304   3.7678   4.5992   4.6352
     4.6558   4.6636   4.6754   4.6842   5.3347   5.3534   5.3663   5.5789
     5.5975   5.6076   5.6152   5.6211   5.6452   6.0645   6.0897   6.1195
     6.7704   6.7906   6.7955   6.8051   6.8136   6.8297   7.0074   7.0271
     7.0381   7.0451

          k = 0.1250 0.1250 0.3750 ( 14715 PWs)   bands (ev):

    -3.4097  -2.9056  -1.9138  -1.8888  -1.4136  -1.3912  -0.9158  -0.8888
    -0.4296  -0.4018  -0.3873   0.0855   0.0966   0.5711   0.5972   1.0596
     1.0868   1.5408   1.5645   1.5723   1.5864   2.0481   2.5319   2.5562
     3.0093   3.0343   3.0472   3.4436   3.4668   3.9200   3.9416   3.9763
     3.9931   4.0070   4.0217   4.4815   4.8855   4.9091   4.9697   5.3601
     5.3779   5.4290   5.4557   5.5862   5.6086   5.8462   5.8589   6.0690
     6.0898   6.3197   6.3334   6.3976   6.7872   6.8139   7.0442   7.0549
     7.5212   7.5302

          k = 0.1250 0.3750 0.3750 ( 14736 PWs)   bands (ev):

    -3.1582  -2.6563  -2.6513  -2.1505  -1.6511  -1.1575  -1.1492  -0.6685
    -0.6404  -0.1604  -0.1552   0.3257   0.3349   0.3527   0.8176   0.8402
     1.7901   1.8022   1.8154   1.8250   2.2737   2.2859   2.2997   2.3091
     2.7801   2.7851   3.2468   3.2655   3.2796   3.3023   3.6906   3.7516
     3.7581   3.7669   4.1722   4.1774   4.2323   4.2526   4.6602   4.7184
     4.7234   5.1933   5.1939   5.2094   5.8384   6.1641   6.3274   6.3336
     6.6191   6.6289   6.6323   6.8124   7.0309   7.0369   7.4925   7.5163
     7.5774   7.5823

          k = 0.3750 0.3750 0.3750 ( 14757 PWs)   bands (ev):

    -2.9066  -2.4286  -2.4046  -2.3751  -1.9257  -1.9030  -1.8723  -1.3995
     0.5554   0.5790   0.6089   1.0187   1.0574   1.0774   1.0868   1.0977
     1.1071   1.5481   1.5648   1.5810   2.0328   2.0497   2.0668   2.4836
     2.5196   2.5425   2.5501   2.5625   2.5717   2.9953   3.0201   3.0498
     3.9799   4.0035   4.0333   4.4683   4.4872   4.5027   5.4052   5.4224
     5.4304   5.4394   5.4461   5.4677   5.8842   5.9029   5.9115   5.9213
     5.9264   5.9485   6.8393   6.8556   6.8727   7.3033   7.3302   7.3435
     7.3735   7.9140

          k =-0.1250-0.1250 0.1250 ( 14765 PWs)   bands (ev):

    -3.6621  -2.1930  -2.1486  -2.1130  -1.1939  -1.1506  -1.1133  -0.6952
    -0.6508  -0.6127   0.2904   0.3008   0.3255   0.3403   0.3712   0.3921
     0.8324   1.2788   1.3241   1.3595   1.7857   1.8059   1.8223   2.7859
     2.8054   2.8230   3.1967   3.2151   3.2317   3.7666   4.6063   4.6166
     4.6394   4.6540   4.6909   4.7077   5.3335   5.3534   5.3702   5.5658
     5.5951   5.6008   5.6147   5.6305   5.6558   6.0471   6.0928   6.1307
     6.7595   6.7866   6.7952   6.8087   6.8146   6.8449   6.9925   7.0255
     7.0331   7.0497

          k =-0.1250 0.1250-0.1250 ( 14765 PWs)   bands (ev):

    -3.6621  -2.1921  -2.1584  -2.1034  -1.1937  -1.1599  -1.1046  -0.6936
    -0.6604  -0.6048   0.2848   0.2959   0.3322   0.3457   0.3708   0.3921
     0.8313   1.2796   1.3134   1.3686   1.7974   1.8032   1.8135   2.7973
     2.8044   2.8134   3.2069   3.2144   3.2217   3.7663   4.5982   4.6115
     4.6472   4.6624   4.6868   4.7094   5.3464   5.3507   5.3610   5.5680
     5.5802   5.6014   5.6201   5.6413   5.6504   6.0480   6.0822   6.1389
     6.7637   6.7765   6.7945   6.8125   6.8264   6.8392   6.9978   7.0132
     7.0291   7.0505

          k = 0.1250-0.1250-0.1250 ( 14765 PWs)   bands (ev):

    -3.6621  -2.1652  -2.1534  -2.1389  -1.1655  -1.1511  -1.1385  -0.6668
    -0.6549  -0.6386   0.3076   0.3155   0.3265   0.3369   0.3581   0.3746
     0.8329   1.3092   1.3211   1.3361   1.7864   1.8052   1.8209   2.7867
     2.8043   2.8217   3.1986   3.2143   3.2314   3.7675   4.6262   4.6310
     4.6449   4.6532   4.6690   4.6877   5.3367   5.3521   5.3688   5.5897
     5.6000   5.6089   5.6123   5.6214   5.6316   6.0765   6.0890   6.1056
     6.7799   6.7897   6.8005   6.8061   6.8128   6.8202   7.0178   7.0237
     7.0339   7.0445

          k =-0.1250-0.1250 0.3750 ( 14715 PWs)   bands (ev):

    -3.4095  -2.9061  -1.9125  -1.8888  -1.4147  -1.3902  -0.9164  -0.8903
    -0.4271  -0.4035  -0.3876   0.0877   0.0952   0.5710   0.5977   1.0587
     1.0856   1.5453   1.5615   1.5713   1.5890   2.0470   2.5324   2.5549
     3.0088   3.0305   3.0498   3.4459   3.4683   3.9219   3.9407   3.9795
     3.9909   4.0063   4.0209   4.4763   4.8867   4.9121   4.9688   5.3603
     5.3795   5.4268   5.4537   5.5860   5.6086   5.8469   5.8606   6.0682
     6.0894   6.3221   6.3292   6.3989   6.7901   6.8138   7.0453   7.0538
     7.5211   7.5308

          k =-0.1250 0.1250-0.3750 ( 14715 PWs)   bands (ev):

    -3.4095  -2.9063  -1.9091  -1.8918  -1.4100  -1.3957  -0.9105  -0.8963
    -0.4262  -0.4063  -0.3833   0.0855   0.0945   0.5783   0.5908   1.0678
     1.0790   1.5444   1.5608   1.5686   1.5904   2.0485   2.5346   2.5545
     3.0126   3.0281   3.0464   3.4508   3.4612   3.9275   3.9373   3.9817
     3.9987   4.0018   4.0151   4.4770   4.8894   4.9080   4.9682   5.3606
     5.3796   5.4342   5.4482   5.5932   5.6046   5.8462   5.8554   6.0744
     6.0846   6.3228   6.3322   6.3958   6.7958   6.8068   7.0476   7.0542
     7.5217   7.5290

          k = 0.1250-0.1250-0.3750 ( 14715 PWs)   bands (ev):

    -3.4097  -2.9054  -1.9091  -1.8948  -1.4102  -1.3936  -0.9101  -0.8929
    -0.4240  -0.4054  -0.3921   0.0823   0.0996   0.5792   0.5905   1.0668
     1.0790   1.5496   1.5554   1.5750   1.5865   2.0457   2.5356   2.5534
     3.0124   3.0292   3.0463   3.4508   3.4620   3.9207   3.9373   3.9815
     3.9973   4.0077   4.0167   4.4781   4.8885   4.9078   4.9694   5.3580
     5.3798   5.4381   5.4462   5.5932   5.6041   5.8484   5.8588   6.0748
     6.0865   6.3192   6.3244   6.4001   6.7953   6.8068   7.0452   7.0522
     7.5232   7.5294

          k = 0.3750-0.1250 0.1250 ( 14715 PWs)   bands (ev):

    -3.4096  -2.9052  -1.9379  -1.8640  -1.4382  -1.3649  -0.9391  -0.8663
    -0.4454  -0.4084  -0.3652   0.0852   0.0948   0.5784   0.5915   1.0674
     1.0790   1.5278   1.5602   1.5679   1.6097   2.0456   2.5059   2.5830
     2.9843   3.0431   3.0590   3.4513   3.4624   3.9272   3.9381   3.9534
     4.0019   4.0134   4.0297   4.4774   4.8598   4.9363   4.9681   5.3330
     5.4032   5.4371   5.4484   5.5930   5.6035   5.8345   5.8709   6.0768
     6.0841   6.3076   6.3445   6.3967   6.7960   6.8082   7.0351   7.0627
     7.5115   7.5401

          k =-0.3750-0.1250-0.1250 ( 14715 PWs)   bands (ev):

    -3.4097  -2.9052  -1.9049  -1.8989  -1.4073  -1.4007  -0.9031  -0.8983
    -0.4170  -0.4088  -0.3890   0.0761   0.1057   0.5721   0.5955   1.0619
     1.0820   1.5441   1.5633   1.5700   1.5844   2.0481   2.5440   2.5472
     3.0172   3.0227   3.0476   3.4459   3.4654   3.9229   3.9404   3.9875
     3.9924   3.9996   4.0208   4.4798   4.8962   4.8995   4.9704   5.3689
     5.3725   5.4269   5.4489   5.5895   5.6080   5.8493   5.8550   6.0715
     6.0883   6.3246   6.3285   6.3952   6.7920   6.8121   7.0485   7.0520
     7.5240   7.5276

          k = 0.3750 0.1250-0.1250 ( 14715 PWs)   bands (ev):

    -3.4097  -2.9050  -1.9379  -1.8648  -1.4379  -1.3638  -0.9401  -0.8666
    -0.4449  -0.4060  -0.3671   0.0850   0.0951   0.5776   0.5904   1.0689
     1.0803   1.5267   1.5561   1.5715   1.6092   2.0467   2.5066   2.5812
     2.9849   3.0401   3.0631   3.4506   3.4615   3.9272   3.9354   3.9563
     4.0008   4.0137   4.0301   4.4793   4.8584   4.9354   4.9681   5.3340
     5.4099   5.4334   5.4478   5.5934   5.6032   5.8333   5.8692   6.0765
     6.0842   6.3084   6.3465   6.3955   6.7963   6.8079   7.0345   7.0621
     7.5126   7.5411

          k =-0.3750 0.1250 0.1250 ( 14715 PWs)   bands (ev):

    -3.4097  -2.9050  -1.9054  -1.8999  -1.4055  -1.3995  -0.9043  -0.8992
    -0.4126  -0.4027  -0.4005   0.0756   0.1088   0.5718   0.5932   1.0618
     1.0840   1.5439   1.5651   1.5711   1.5817   2.0478   2.5437   2.5462
     3.0153   3.0219   3.0506   3.4466   3.4660   3.9224   3.9391   3.9857
     3.9911   4.0027   4.0228   4.4785   4.8956   4.9001   4.9700   5.3702
     5.3750   5.4254   5.4480   5.5893   5.6082   5.8497   5.8547   6.0717
     6.0882   6.3234   6.3273   6.3965   6.7929   6.8131   7.0477   7.0501
     7.5262   7.5290

          k =-0.1250 0.3750 0.1250 ( 14715 PWs)   bands (ev):

    -3.4097  -2.9052  -1.9128  -1.8916  -1.4125  -1.3913  -0.9122  -0.8917
    -0.4173  -0.4086  -0.3931   0.0797   0.1022   0.5713   0.5974   1.0604
     1.0869   1.5433   1.5605   1.5785   1.5814   2.0467   2.5336   2.5546
     3.0095   3.0306   3.0489   3.4439   3.4673   3.9191   3.9439   3.9774
     3.9895   4.0078   4.0236   4.4803   4.8869   4.9087   4.9695   5.3606
     5.3826   5.4279   5.4519   5.5865   5.6097   5.8480   5.8583   6.0687
     6.0905   6.3194   6.3299   6.3978   6.7881   6.8144   7.0443   7.0531
     7.5224   7.5307

          k =-0.1250-0.3750-0.1250 ( 14715 PWs)   bands (ev):

    -3.4097  -2.9052  -1.9251  -1.8776  -1.4264  -1.3783  -0.9261  -0.8774
    -0.4327  -0.4054  -0.3821   0.0859   0.0956   0.5833   0.5864   1.0709
     1.0751   1.5393   1.5613   1.5708   1.5939   2.0468   2.5181   2.5687
     2.9978   3.0388   3.0543   3.4541   3.4561   3.9303   3.9345   3.9640
     4.0016   4.0090   4.0202   4.4819   4.8735   4.9224   4.9697   5.3482
     5.3919   5.4391   5.4432   5.5947   5.5984   5.8449   5.8654   6.0771
     6.0808   6.3162   6.3340   6.3981   6.7988   6.8033   7.0391   7.0583
     7.5164   7.5341

          k = 0.1250 0.3750-0.1250 ( 14715 PWs)   bands (ev):

    -3.4095  -2.9059  -1.9112  -1.8908  -1.4139  -1.3919  -0.9134  -0.8926
    -0.4282  -0.3991  -0.3877   0.0731   0.1068   0.5712   0.5981   1.0608
     1.0860   1.5362   1.5602   1.5752   1.5915   2.0483   2.5341   2.5543
     3.0101   3.0286   3.0492   3.4437   3.4675   3.9186   3.9396   3.9817
     3.9959   4.0021   4.0241   4.4791   4.8883   4.9087   4.9686   5.3599
     5.3816   5.4254   5.4539   5.5876   5.6107   5.8460   5.8570   6.0683
     6.0898   6.3228   6.3315   6.3957   6.7887   6.8137   7.0458   7.0556
     7.5221   7.5296

          k = 0.1250-0.3750 0.1250 ( 14715 PWs)   bands (ev):

    -3.4095  -2.9059  -1.9249  -1.8763  -1.4253  -1.3785  -0.9289  -0.8798
    -0.4335  -0.4055  -0.3770   0.0774   0.1047   0.5816   0.5854   1.0738
     1.0744   1.5392   1.5526   1.5713   1.6008   2.0487   2.5179   2.5680
     2.9979   3.0386   3.0534   3.4548   3.4565   3.9297   3.9349   3.9627
     4.0058   4.0113   4.0166   4.4789   4.8735   4.9231   4.9683   5.3485
     5.3948   5.4386   5.4413   5.5955   5.5995   5.8413   5.8628   6.0763
     6.0806   6.3181   6.3398   6.3962   6.7999   6.8034   7.0404   7.0592
     7.5172   7.5353

          k =-0.1250-0.3750 0.3750 ( 14736 PWs)   bands (ev):

    -3.1573  -2.6902  -2.6164  -2.1517  -1.6513  -1.1888  -1.1169  -0.6602
    -0.6481  -0.1948  -0.1192   0.2973   0.3338   0.3759   0.8259   0.8383
     1.7673   1.8020   1.8104   1.8475   2.2527   2.2883   2.2987   2.3345
     2.7449   2.8194   3.2530   3.2653   3.2815   3.2927   3.6945   3.7227
     3.7559   3.7973   4.1360   4.2107   4.2387   4.2479   4.6559   4.6829
     4.7595   5.1804   5.2079   5.2097   5.8391   6.1627   6.2934   6.3674
     6.6107   6.6270   6.6453   6.8091   6.9949   7.0718   7.5003   7.5142
     7.5660   7.5981

          k =-0.1250 0.3750-0.3750 ( 14736 PWs)   bands (ev):

    -3.1572  -2.6902  -2.6166  -2.1519  -1.6509  -1.1887  -1.1159  -0.6606
    -0.6497  -0.1946  -0.1196   0.2970   0.3338   0.3778   0.8256   0.8379
     1.7690   1.7978   1.8100   1.8512   2.2531   2.2862   2.2980   2.3373
     2.7443   2.8174   3.2547   3.2643   3.2810   3.2951   3.6917   3.7237
     3.7555   3.7986   4.1372   4.2114   4.2345   4.2461   4.6595   4.6831
     4.7599   5.1806   5.2060   5.2108   5.8396   6.1615   6.2936   6.3685
     6.6124   6.6253   6.6461   6.8084   6.9949   7.0715   7.5011   7.5174
     7.5658   7.5953

          k = 0.1250-0.3750-0.3750 ( 14736 PWs)   bands (ev):

    -3.1582  -2.6563  -2.6512  -2.1504  -1.6520  -1.1567  -1.1492  -0.6699
    -0.6375  -0.1624  -0.1553   0.3309   0.3395   0.3424   0.8178   0.8412
     1.7918   1.8056   1.8116   1.8222   2.2776   2.2919   2.2962   2.3059
     2.7795   2.7853   3.2445   3.2611   3.2811   3.3026   3.6941   3.7545
     3.7589   3.7630   4.1720   4.1770   4.2343   4.2531   4.6578   4.7181
     4.7239   5.1929   5.1943   5.2115   5.8372   6.1641   6.3272   6.3329
     6.6163   6.6281   6.6344   6.8123   7.0328   7.0393   7.4896   7.5189
     7.5778   7.5820

          k = 0.3750 0.1250-0.3750 ( 14736 PWs)   bands (ev):

    -3.1577  -2.6650  -2.6431  -2.1517  -1.6498  -1.1627  -1.1418  -0.6717
    -0.6387  -0.1688  -0.1480   0.3126   0.3431   0.3552   0.8189   0.8443
     1.7874   1.7924   1.8181   1.8314   2.2733   2.2784   2.3043   2.3184
     2.7680   2.7922   3.2381   3.2656   3.2824   3.3051   3.6896   3.7492
     3.7611   3.7706   4.1647   4.1859   4.2275   4.2530   4.6608   4.7111
     4.7324   5.1913   5.1960   5.2122   5.8389   6.1618   6.3212   6.3418
     6.6173   6.6233   6.6388   6.8122   7.0212   7.0457   7.4891   7.5229
     7.5758   7.5856

          k =-0.3750-0.1250-0.3750 ( 14736 PWs)   bands (ev):

    -3.1577  -2.6772  -2.6299  -2.1517  -1.6518  -1.1763  -1.1292  -0.6580
    -0.6496  -0.1817  -0.1328   0.3132   0.3348   0.3608   0.8299   0.8322
     1.7843   1.8003   1.8068   1.8349   2.2689   2.2878   2.2916   2.3246
     2.7583   2.8064   3.2586   3.2618   3.2857   3.2877   3.6951   3.7364
     3.7558   3.7838   4.1504   4.1966   4.2404   4.2445   4.6544   4.6984
     4.7461   5.1866   5.1961   5.2156   5.8396   6.1646   6.3070   6.3550
     6.6174   6.6210   6.6443   6.8095   7.0093   7.0563   7.5045   7.5078
     7.5714   7.5921

          k = 0.3750-0.1250 0.3750 ( 14736 PWs)   bands (ev):

    -3.1575  -2.6773  -2.6303  -2.1526  -1.6495  -1.1757  -1.1282  -0.6684
    -0.6419  -0.1834  -0.1343   0.3120   0.3339   0.3648   0.8298   0.8339
     1.7823   1.8028   1.8076   1.8363   2.2657   2.2897   2.2951   2.3248
     2.7571   2.8034   3.2512   3.2572   3.2898   3.2911   3.6937   3.7338
     3.7602   3.7822   4.1527   4.2002   4.2397   4.2419   4.6591   4.6953
     4.7466   5.1870   5.2032   5.2117   5.8381   6.1627   6.3076   6.3551
     6.6158   6.6228   6.6398   6.8101   7.0116   7.0581   7.5025   7.5099
     7.5707   7.5936

          k =-0.3750 0.1250 0.3750 ( 14736 PWs)   bands (ev):

    -3.1579  -2.6647  -2.6430  -2.1509  -1.6524  -1.1633  -1.1419  -0.6644
    -0.6425  -0.1682  -0.1479   0.3256   0.3321   0.3512   0.8189   0.8445
     1.7855   1.8012   1.8143   1.8250   2.2723   2.2900   2.3008   2.3116
     2.7701   2.7933   3.2431   3.2675   3.2772   3.3027   3.6950   3.7495
     3.7577   3.7721   4.1626   4.1829   4.2311   4.2546   4.6553   4.7121
     4.7325   5.1894   5.1970   5.2123   5.8392   6.1643   6.3196   6.3415
     6.6163   6.6279   6.6364   6.8117   7.0225   7.0444   7.4905   7.5213
     7.5768   7.5864

          k = 0.3750-0.3750 0.1250 ( 14736 PWs)   bands (ev):

    -3.1575  -2.6614  -2.6471  -2.1524  -1.6489  -1.1607  -1.1436  -0.6591
    -0.6518  -0.1674  -0.1497   0.3162   0.3371   0.3573   0.8264   0.8384
     1.7882   1.7971   1.8126   1.8311   2.2714   2.2842   2.2988   2.3189
     2.7733   2.7869   3.2525   3.2660   3.2801   3.2919   3.6927   3.7508
     3.7583   3.7680   4.1668   4.1851   4.2335   4.2466   4.6610   4.7103
     4.7307   5.1917   5.1992   5.2109   5.8393   6.1613   6.3234   6.3407
     6.6173   6.6279   6.6361   6.8108   7.0252   7.0417   7.4991   7.5134
     7.5794   7.5843

          k =-0.3750-0.3750-0.1250 ( 14736 PWs)   bands (ev):

    -3.1577  -2.6661  -2.6415  -2.1520  -1.6511  -1.1652  -1.1405  -0.6580
    -0.6494  -0.1690  -0.1461   0.3131   0.3413   0.3553   0.8179   0.8441
     1.7847   1.7952   1.8142   1.8350   2.2681   2.2810   2.2990   2.3221
     2.7706   2.7952   3.2477   3.2714   3.2732   3.2974   3.6933   3.7492
     3.7564   3.7725   4.1634   4.1864   4.2302   4.2555   4.6559   4.7093
     4.7308   5.1881   5.1985   5.2136   5.8397   6.1632   6.3194   6.3441
     6.6149   6.6283   6.6389   6.8108   7.0213   7.0467   7.4888   7.5213
     7.5743   7.5856

          k = 0.3750 0.3750-0.1250 ( 14736 PWs)   bands (ev):

    -3.1575  -2.6663  -2.6416  -2.1527  -1.6497  -1.1639  -1.1395  -0.6592
    -0.6516  -0.1699  -0.1479   0.3167   0.3392   0.3571   0.8180   0.8439
     1.7853   1.7963   1.8149   1.8338   2.2715   2.2811   2.2996   2.3208
     2.7677   2.7930   3.2462   3.2716   3.2735   3.2990   3.6947   3.7469
     3.7584   3.7700   4.1637   4.1882   4.2282   4.2525   4.6596   4.7091
     4.7322   5.1912   5.1932   5.2174   5.8390   6.1631   6.3191   6.3441
     6.6146   6.6247   6.6419   6.8088   7.0229   7.0478   7.4904   7.5210
     7.5766   7.5881

          k =-0.3750 0.3750 0.1250 ( 14736 PWs)   bands (ev):

    -3.1578  -2.6613  -2.6465  -2.1514  -1.6522  -1.1605  -1.1445  -0.6620
    -0.6448  -0.1673  -0.1487   0.3186   0.3391   0.3506   0.8260   0.8383
     1.7810   1.8042   1.8156   1.8244   2.2680   2.2906   2.3033   2.3131
     2.7734   2.7894   3.2511   3.2636   3.2829   3.2934   3.6938   3.7524
     3.7577   3.7700   4.1651   4.1834   4.2348   4.2478   4.6567   4.7115
     4.7302   5.1876   5.1943   5.2177   5.8399   6.1634   6.3232   6.3397
     6.6130   6.6263   6.6434   6.8103   7.0245   7.0424   7.5009   7.5132
     7.5763   7.5843

          k =-0.3750-0.3750 0.3750 ( 14757 PWs)   bands (ev):

    -2.9059  -2.4441  -2.3990  -2.3644  -1.9420  -1.8980  -1.8608  -1.4008
     0.5385   0.5838   0.6178   1.0282   1.0383   1.0628   1.0787   1.1104
     1.1310   1.5473   1.5675   1.5840   2.0291   2.0494   2.0687   2.4898
     2.5034   2.5255   2.5403   2.5744   2.5924   2.9780   3.0252   3.0627
     3.9628   4.0064   4.0437   4.4688   4.4883   4.5062   5.3879   5.4189
     5.4270   5.4423   5.4498   5.4798   5.8714   5.9026   5.9086   5.9244
     5.9345   5.9626   6.8335   6.8558   6.8736   7.2884   7.3376   7.3443
     7.3800   7.9121

          k =-0.3750 0.3750-0.3750 ( 14757 PWs)   bands (ev):

    -2.9057  -2.4431  -2.4092  -2.3547  -1.9407  -1.9080  -1.8523  -1.4012
     0.5398   0.5729   0.6267   1.0234   1.0335   1.0718   1.0829   1.1087
     1.1296   1.5591   1.5660   1.5754   2.0402   2.0488   2.0573   2.4844
     2.4962   2.5325   2.5481   2.5706   2.5933   2.9796   3.0143   3.0719
     3.9638   3.9983   4.0494   4.4808   4.4867   4.4973   5.3944   5.4070
     5.4238   5.4436   5.4608   5.4743   5.8748   5.8909   5.9070   5.9278
     5.9490   5.9578   6.8445   6.8547   6.8622   7.2903   7.3225   7.3514
     7.3855   7.9251

          k = 0.3750-0.3750-0.3750 ( 14757 PWs)   bands (ev):

    -2.9068  -2.4160  -2.4035  -2.3899  -1.9139  -1.9012  -1.8853  -1.3986
     0.5660   0.5807   0.5940   1.0469   1.0524   1.0655   1.0727   1.0951
     1.1126   1.5490   1.5654   1.5834   2.0314   2.0483   2.0678   2.5066
     2.5167   2.5293   2.5403   2.5584   2.5765   3.0086   3.0214   3.0380
     3.9913   4.0033   4.0195   4.4681   4.4878   4.5051   5.4130   5.4220
     5.4309   5.4391   5.4451   5.4572   5.8950   5.9050   5.9146   5.9194
     5.9270   5.9385   6.8379   6.8528   6.8737   7.3119   7.3303   7.3411
     7.3713   7.9135

     the Fermi energy is     6.2315 ev

!    total energy              =   -1263.85521889 Ry
     Harris-Foulkes estimate   =   -1263.85521890 Ry
     estimated scf accuracy    <       0.00000004 Ry

     total all-electron energy =    -15540.424196 Ry

     The total energy is the sum of the following terms:

     one-electron contribution =      88.85595184 Ry
     hartree contribution      =       0.25559295 Ry
     xc contribution           =     -80.21695096 Ry
     ewald contribution        =    -163.42023442 Ry
     one-center paw contrib.   =   -1109.33008605 Ry
     smearing contrib. (-TS)   =       0.00050775 Ry

     convergence has been achieved in  12 iterations

     Forces acting on atoms (cartesian axes, Ry/au):

     atom    1 type  1   force =     0.00168536    0.00223356   -0.00024107
     atom    2 type  1   force =     0.00026796   -0.00011955    0.00100033
     atom    3 type  1   force =     0.00073412   -0.00095260    0.00134108
     atom    4 type  1   force =    -0.00402790   -0.00083818   -0.00175320
     atom    5 type  1   force =    -0.00139059    0.00073550    0.00129177
     atom    6 type  1   force =     0.00117461   -0.00005219    0.00026330
     atom    7 type  1   force =    -0.00213279    0.00229464    0.00050683
     atom    8 type  1   force =     0.00012549   -0.00253893   -0.00241797
     atom    9 type  1   force =     0.00029479    0.00169466    0.00020438
     atom   10 type  1   force =    -0.00307088   -0.00384045   -0.00335650
     atom   11 type  1   force =     0.00156851   -0.00204920   -0.00037426
     atom   12 type  1   force =    -0.00075920    0.00061540    0.00070179
     atom   13 type  1   force =    -0.00007123   -0.00103544    0.00144794
     atom   14 type  1   force =    -0.00258706   -0.00045874   -0.00109631
     atom   15 type  1   force =     0.00013031    0.00245698    0.00168155
     atom   16 type  1   force =     0.00294834   -0.00032927   -0.00139818
     atom   17 type  1   force =     0.00049184    0.00073348   -0.00108071
     atom   18 type  1   force =    -0.00012054    0.00153378    0.00609424
     atom   19 type  1   force =     0.00079401    0.00086158   -0.00009857
     atom   20 type  1   force =     0.00104432    0.00200337    0.00007390
     atom   21 type  1   force =    -0.00189287    0.00022384   -0.00177987
     atom   22 type  1   force =     0.00509081   -0.00062950   -0.00042019
     atom   23 type  1   force =     0.00102564   -0.00199149   -0.00310267
     atom   24 type  1   force =    -0.00092730   -0.00148777    0.00049102
     atom   25 type  1   force =     0.00022685    0.00341033    0.00109145
     atom   26 type  1   force =    -0.00292032   -0.00508869   -0.00021220
     atom   27 type  1   force =    -0.00027741   -0.00175835   -0.00312395
     atom   28 type  1   force =     0.00281666    0.00035622    0.00157496
     atom   29 type  1   force =    -0.00375695   -0.00005765   -0.00176302
     atom   30 type  1   force =     0.00119289    0.00284714    0.00139535
     atom   31 type  1   force =    -0.00104802    0.00242167    0.00048025
     atom   32 type  1   force =     0.00337057   -0.00119413    0.00257852

     Total force =     0.019056     Total SCF correction =     0.000192


     Computing stress (Cartesian axis) and pressure

          total   stress  (Ry/bohr**3)                   (kbar)     P=  -86.73
  -0.00058903   0.00000018   0.00000020        -86.65      0.03      0.03
   0.00000018  -0.00058960   0.00000117          0.03    -86.73      0.17
   0.00000020   0.00000117  -0.00059012          0.03      0.17    -86.81


     Writing output data file AAA.save/

     init_run     :     68.24s CPU     71.19s WALL (       1 calls)
     electrons    :   1331.69s CPU   1369.66s WALL (       1 calls)
     forces       :     12.63s CPU     12.84s WALL (       1 calls)
     stress       :     65.84s CPU     66.19s WALL (       1 calls)

     Called by init_run:
     wfcinit      :     66.13s CPU     68.83s WALL (       1 calls)
     potinit      :      1.26s CPU      1.30s WALL (       1 calls)
     hinit0       :      0.67s CPU      0.68s WALL (       1 calls)

     Called by electrons:
     c_bands      :   1147.76s CPU   1180.56s WALL (      13 calls)
     sum_band     :    163.58s CPU    166.56s WALL (      13 calls)
     v_of_rho     :      3.41s CPU      3.46s WALL (      13 calls)
     newd         :      2.04s CPU      4.31s WALL (      13 calls)
     PAW_pot      :     15.20s CPU     15.28s WALL (      13 calls)
     mix_rho      :      0.62s CPU      0.61s WALL (      13 calls)

     Called by c_bands:
     init_us_2    :     12.70s CPU     12.91s WALL (     928 calls)
     cegterg      :   1114.92s CPU   1146.91s WALL (     416 calls)

     Called by sum_band:
     sum_band:bec :      0.09s CPU      0.09s WALL (     416 calls)
     addusdens    :      2.10s CPU      4.18s WALL (      13 calls)

     Called by *egterg:
     h_psi        :    820.67s CPU    839.47s WALL (    1453 calls)
     s_psi        :    137.55s CPU    138.73s WALL (    1453 calls)
     g_psi        :      3.03s CPU      3.02s WALL (    1005 calls)
     cdiaghg      :     17.78s CPU     17.88s WALL (    1389 calls)

     Called by h_psi:
     h_psi:pot    :    818.43s CPU    824.75s WALL (    1453 calls)
     h_psi:calbec :    121.00s CPU    121.50s WALL (    1453 calls)
     vloc_psi     :    560.62s CPU    565.82s WALL (    1453 calls)
     add_vuspsi   :    136.79s CPU    137.42s WALL (    1453 calls)

     General routines
     calbec       :    174.62s CPU    175.36s WALL (    2029 calls)
     fft          :      2.42s CPU      2.46s WALL (     194 calls)
     ffts         :      0.19s CPU      0.19s WALL (      26 calls)
     fftw         :    594.70s CPU    599.83s WALL (  159738 calls)
     interpolate  :      0.31s CPU      0.31s WALL (      13 calls)

     Parallel routines
     fft_scatt_xy :    140.85s CPU    141.80s WALL (  159958 calls)
     fft_scatt_yz :     99.35s CPU    100.35s WALL (  159958 calls)

     PWSCF        : 24m39.17s CPU    25m21.07s WALL


   This run was terminated on:  11:51:50  11Feb2019            

=------------------------------------------------------------------------------=
   JOB DONE.
=------------------------------------------------------------------------------=
