
     Program PWSCF v.6.3 starts on 11Feb2019 at 11: 4:41 

     This program is part of the open-source Quantum ESPRESSO suite
     for quantum simulation of materials; please cite
         "P. Giannozzi et al., J. Phys.:Condens. Matter 21 395502 (2009);
         "P. Giannozzi et al., J. Phys.:Condens. Matter 29 465901 (2017);
          URL http://www.quantum-espresso.org", 
     in publications or presentations arising from this work. More details at
     http://www.quantum-espresso.org/quote

     Parallel version (MPI), running on     2 processors

     MPI processes distributed on     1 nodes
     R & G space division:  proc/nbgrp/npool/nimage =       2
     Reading input from wd/execdir/heat_001.in
Warning: card &IONS ignored
Warning: card ION_DYNAMICS = 'BFGS', ignored
Warning: card / ignored
Warning: card &CELL ignored
Warning: card CELL_DYNAMICS = 'BFGS', ignored
Warning: card CELL_FACTOR = 2.0, ignored
Warning: card PRESS = 0.0, ignored
Warning: card / ignored

     Current dimensions of program PWSCF are:
     Max number of different atomic species (ntypx) = 10
     Max number of k-points (npk) =  40000
     Max angular momentum in pseudopotentials (lmaxx) =  3
               file Al.pbe-nl-kjpaw_psl.1.0.0.UPF: wavefunction(s)  3S 3P renormalized

     Subspace diagonalization in iterative solution of the eigenvalue problem:
     a serial algorithm will be used


     Parallelization info
     --------------------
     sticks:   dense  smooth     PW     G-vecs:    dense   smooth      PW
     Min        2082    1458    396               100742    59132    8414
     Max        2083    1459    397               100743    59133    8417
     Sum        4165    2917    793               201485   118265   16831



     bravais-lattice index     =            0
     lattice parameter (alat)  =      16.1595  a.u.
     unit-cell volume          =    4219.7220 (a.u.)^3
     number of atoms/cell      =           32
     number of atomic types    =            1
     number of electrons       =        96.00
     number of Kohn-Sham states=           58
     kinetic-energy cutoff     =      35.0000  Ry
     charge density cutoff     =     200.0000  Ry
     convergence threshold     =      1.0E-06
     mixing beta               =       0.1000
     number of iterations used =           10  TF        mixing
     Exchange-correlation      = SLA PW PBX PBC ( 1  4  3  4 0 0)

     celldm(1)=  16.159501  celldm(2)=   0.000000  celldm(3)=   0.000000
     celldm(4)=   0.000000  celldm(5)=   0.000000  celldm(6)=   0.000000

     crystal axes: (cart. coord. in units of alat)
               a(1) = (   1.000000   0.000000   0.000000 )  
               a(2) = (   0.000000   1.000000   0.000000 )  
               a(3) = (   0.000000   0.000000   1.000000 )  

     reciprocal axes: (cart. coord. in units 2 pi/alat)
               b(1) = (  1.000000  0.000000  0.000000 )  
               b(2) = (  0.000000  1.000000  0.000000 )  
               b(3) = (  0.000000  0.000000  1.000000 )  


     PseudoPot. # 1 for Al read from file:
     /opt/pp/Al.pbe-nl-kjpaw_psl.1.0.0.UPF
     MD5 check sum: 1b67f78b73fe58c7924490f171ce8a1e
     Pseudo is Projector augmented-wave + core cor, Zval =  3.0
     Generated using "atomic" code by A. Dal Corso v.6.3
     Shape of augmentation charge: PSQ
     Using radial grid of 1135 points,  4 beta functions with: 
                l(1) =   0
                l(2) =   0
                l(3) =   1
                l(4) =   1
     Q(r) pseudized with 0 coefficients 


     atomic species   valence    mass     pseudopotential
        Al             3.00    26.98200     Al( 1.00)

     No symmetry found



   Cartesian axes

     site n.     atom                  positions (alat units)
         1           Al  tau(   1) = (   0.0000899   0.0006429   0.0007522  )
         2           Al  tau(   2) = (   0.2482046   0.2506646  -0.0008776  )
         3           Al  tau(   3) = (   0.2502882   0.0027925   0.2498110  )
         4           Al  tau(   4) = (   0.0020668   0.2517359   0.2524174  )
         5           Al  tau(   5) = (   0.0023826  -0.0011247   0.5011286  )
         6           Al  tau(   6) = (   0.2484178   0.2500339   0.5002626  )
         7           Al  tau(   7) = (   0.2514542  -0.0010582   0.7505190  )
         8           Al  tau(   8) = (   0.0010739   0.2519856   0.7522441  )
         9           Al  tau(   9) = (   0.0010187   0.4998541   0.0013193  )
        10           Al  tau(  10) = (   0.2516652   0.7538308   0.0017870  )
        11           Al  tau(  11) = (   0.2510286   0.5023725   0.2503623  )
        12           Al  tau(  12) = (   0.0004304   0.7502394   0.2510410  )
        13           Al  tau(  13) = (   0.0014758   0.5009357   0.4996601  )
        14           Al  tau(  14) = (   0.2505977   0.7487775   0.5031807  )
        15           Al  tau(  15) = (   0.2480094   0.4971273   0.7469003  )
        16           Al  tau(  16) = (  -0.0027830   0.7499352   0.7519249  )
        17           Al  tau(  17) = (   0.4990511  -0.0003660  -0.0008284  )
        18           Al  tau(  18) = (   0.7508890   0.2477966  -0.0034457  )
        19           Al  tau(  19) = (   0.7490938   0.0007289   0.2497652  )
        20           Al  tau(  20) = (   0.4996349   0.2484096   0.2492546  )
        21           Al  tau(  21) = (   0.5027682  -0.0002591   0.5006460  )
        22           Al  tau(  22) = (   0.7471255   0.2495490   0.5003378  )
        23           Al  tau(  23) = (   0.7493512   0.0002425   0.7501076  )
        24           Al  tau(  24) = (   0.4989264   0.2499512   0.7486069  )
        25           Al  tau(  25) = (   0.5010925   0.4979281  -0.0021516  )
        26           Al  tau(  26) = (   0.7509244   0.7525859   0.0009516  )
        27           Al  tau(  27) = (   0.7481268   0.4994914   0.2508294  )
        28           Al  tau(  28) = (   0.4980230   0.7519775   0.2469391  )
        29           Al  tau(  29) = (   0.5009704   0.5003818   0.5015666  )
        30           Al  tau(  30) = (   0.7498793   0.7486264   0.4995006  )
        31           Al  tau(  31) = (   0.7500894   0.5013169   0.7501342  )
        32           Al  tau(  32) = (   0.4995146   0.7492223   0.7486268  )

     number of k points=    32  Marzari-Vanderbilt smearing, width (Ry)=  0.0200
                       cart. coord. in units 2pi/alat
        k(    1) = (   0.1250000   0.1250000   0.1250000), wk =   0.0625000
        k(    2) = (   0.1250000   0.1250000   0.3750000), wk =   0.0625000
        k(    3) = (   0.1250000   0.3750000   0.3750000), wk =   0.0625000
        k(    4) = (   0.3750000   0.3750000   0.3750000), wk =   0.0625000
        k(    5) = (  -0.1250000  -0.1250000   0.1250000), wk =   0.0625000
        k(    6) = (  -0.1250000   0.1250000  -0.1250000), wk =   0.0625000
        k(    7) = (   0.1250000  -0.1250000  -0.1250000), wk =   0.0625000
        k(    8) = (  -0.1250000  -0.1250000   0.3750000), wk =   0.0625000
        k(    9) = (  -0.1250000   0.1250000  -0.3750000), wk =   0.0625000
        k(   10) = (   0.1250000  -0.1250000  -0.3750000), wk =   0.0625000
        k(   11) = (   0.3750000  -0.1250000   0.1250000), wk =   0.0625000
        k(   12) = (  -0.3750000  -0.1250000  -0.1250000), wk =   0.0625000
        k(   13) = (   0.3750000   0.1250000  -0.1250000), wk =   0.0625000
        k(   14) = (  -0.3750000   0.1250000   0.1250000), wk =   0.0625000
        k(   15) = (  -0.1250000   0.3750000   0.1250000), wk =   0.0625000
        k(   16) = (  -0.1250000  -0.3750000  -0.1250000), wk =   0.0625000
        k(   17) = (   0.1250000   0.3750000  -0.1250000), wk =   0.0625000
        k(   18) = (   0.1250000  -0.3750000   0.1250000), wk =   0.0625000
        k(   19) = (  -0.1250000  -0.3750000   0.3750000), wk =   0.0625000
        k(   20) = (  -0.1250000   0.3750000  -0.3750000), wk =   0.0625000
        k(   21) = (   0.1250000  -0.3750000  -0.3750000), wk =   0.0625000
        k(   22) = (   0.3750000   0.1250000  -0.3750000), wk =   0.0625000
        k(   23) = (  -0.3750000  -0.1250000  -0.3750000), wk =   0.0625000
        k(   24) = (   0.3750000  -0.1250000   0.3750000), wk =   0.0625000
        k(   25) = (  -0.3750000   0.1250000   0.3750000), wk =   0.0625000
        k(   26) = (   0.3750000  -0.3750000   0.1250000), wk =   0.0625000
        k(   27) = (  -0.3750000  -0.3750000  -0.1250000), wk =   0.0625000
        k(   28) = (   0.3750000   0.3750000  -0.1250000), wk =   0.0625000
        k(   29) = (  -0.3750000   0.3750000   0.1250000), wk =   0.0625000
        k(   30) = (  -0.3750000  -0.3750000   0.3750000), wk =   0.0625000
        k(   31) = (  -0.3750000   0.3750000  -0.3750000), wk =   0.0625000
        k(   32) = (   0.3750000  -0.3750000  -0.3750000), wk =   0.0625000

     Dense  grid:   201485 G-vectors     FFT dimensions: (  75,  75,  75)

     Smooth grid:   118265 G-vectors     FFT dimensions: (  64,  64,  64)

     Estimated max dynamical RAM per process >     518.89 MB

     Estimated total dynamical RAM >       1.01 GB

     Initial potential from superposition of free atoms

     starting charge   95.92671, renormalised to   96.00000
     Starting wfcs are  128 randomized atomic wfcs
     Checking if some PAW data can be deallocated... 

     total cpu time spent up to now is       51.9 secs

     Self-consistent Calculation

     iteration #  1     ecut=    35.00 Ry     beta= 0.10
     Davidson diagonalization with overlap
     ethr =  1.00E-02,  avg # of iterations =  3.0

     Threshold (ethr) on eigenvalues was too large:
     Diagonalizing with lowered threshold

     Davidson diagonalization with overlap
     ethr =  1.92E-04,  avg # of iterations =  4.0

     total cpu time spent up to now is      273.7 secs

     total energy              =   -1263.89850406 Ry
     Harris-Foulkes estimate   =   -1263.90460852 Ry
     estimated scf accuracy    <       0.17835688 Ry

     iteration #  2     ecut=    35.00 Ry     beta= 0.10
     Davidson diagonalization with overlap
     ethr =  1.86E-04,  avg # of iterations =  1.0

     total cpu time spent up to now is      352.7 secs

     total energy              =   -1263.85109112 Ry
     Harris-Foulkes estimate   =   -1263.89944718 Ry
     estimated scf accuracy    <       0.15523331 Ry

     iteration #  3     ecut=    35.00 Ry     beta= 0.10
     Davidson diagonalization with overlap
     ethr =  1.62E-04,  avg # of iterations =  1.0

     total cpu time spent up to now is      431.9 secs

     total energy              =   -1263.85502360 Ry
     Harris-Foulkes estimate   =   -1263.85530887 Ry
     estimated scf accuracy    <       0.00062697 Ry

     iteration #  4     ecut=    35.00 Ry     beta= 0.10
     Davidson diagonalization with overlap
     ethr =  6.53E-07,  avg # of iterations =  5.2

     total cpu time spent up to now is      619.6 secs

     total energy              =   -1263.85614240 Ry
     Harris-Foulkes estimate   =   -1263.85619705 Ry
     estimated scf accuracy    <       0.00054868 Ry

     iteration #  5     ecut=    35.00 Ry     beta= 0.10
     Davidson diagonalization with overlap
     ethr =  5.72E-07,  avg # of iterations =  1.0

     total cpu time spent up to now is      700.2 secs

     total energy              =   -1263.85536768 Ry
     Harris-Foulkes estimate   =   -1263.85614484 Ry
     estimated scf accuracy    <       0.00051581 Ry

     iteration #  6     ecut=    35.00 Ry     beta= 0.10
     Davidson diagonalization with overlap
     ethr =  5.37E-07,  avg # of iterations =  2.0

     total cpu time spent up to now is      812.6 secs

     total energy              =   -1263.85550082 Ry
     Harris-Foulkes estimate   =   -1263.85547793 Ry
     estimated scf accuracy    <       0.00004416 Ry

     iteration #  7     ecut=    35.00 Ry     beta= 0.10
     Davidson diagonalization with overlap
     ethr =  4.60E-08,  avg # of iterations =  2.4

     total cpu time spent up to now is      908.2 secs

     total energy              =   -1263.85549783 Ry
     Harris-Foulkes estimate   =   -1263.85550456 Ry
     estimated scf accuracy    <       0.00000768 Ry

     iteration #  8     ecut=    35.00 Ry     beta= 0.10
     Davidson diagonalization with overlap
     ethr =  8.00E-09,  avg # of iterations =  3.5

     total cpu time spent up to now is     1017.4 secs

     total energy              =   -1263.85549821 Ry
     Harris-Foulkes estimate   =   -1263.85549914 Ry
     estimated scf accuracy    <       0.00000487 Ry

     iteration #  9     ecut=    35.00 Ry     beta= 0.10
     Davidson diagonalization with overlap
     ethr =  5.07E-09,  avg # of iterations =  1.9

     total cpu time spent up to now is     1098.9 secs

     total energy              =   -1263.85549807 Ry
     Harris-Foulkes estimate   =   -1263.85549864 Ry
     estimated scf accuracy    <       0.00000129 Ry

     iteration # 10     ecut=    35.00 Ry     beta= 0.10
     Davidson diagonalization with overlap
     ethr =  1.35E-09,  avg # of iterations =  3.1

     total cpu time spent up to now is     1218.8 secs

     End of self-consistent calculation

          k = 0.1250 0.1250 0.1250 ( 14765 PWs)   bands (ev):

    -3.6622  -2.1649  -2.1541  -2.1376  -1.1653  -1.1557  -1.1381  -0.6680
    -0.6559  -0.6405   0.3122   0.3180   0.3327   0.3392   0.3439   0.3622
     0.8279   1.3063   1.3168   1.3341   1.7887   1.8008   1.8117   2.7892
     2.8010   2.8123   3.2006   3.2114   3.2218   3.7636   4.6273   4.6330
     4.6445   4.6528   4.6596   4.6745   5.3387   5.3503   5.3601   5.5886
     5.5971   5.6042   5.6091   5.6131   5.6240   6.0715   6.0836   6.0988
     6.7807   6.7923   6.7945   6.8003   6.8064   6.8143   7.0151   7.0251
     7.0327   7.0381

          k = 0.1250 0.1250 0.3750 ( 14752 PWs)   bands (ev):

    -3.4097  -2.9053  -1.9055  -1.8985  -1.4065  -1.3987  -0.9067  -0.9007
    -0.4201  -0.4056  -0.3963   0.0793   0.0972   0.5720   0.5904   1.0615
     1.0810   1.5457   1.5597   1.5669   1.5780   2.0446   2.5385   2.5432
     3.0159   3.0216   3.0423   3.4439   3.4600   3.9204   3.9372   3.9823
     3.9900   3.9954   4.0141   4.4756   4.8905   4.8957   4.9656   5.3646
     5.3711   5.4261   5.4447   5.5859   5.6023   5.8441   5.8482   6.0679
     6.0838   6.3193   6.3233   6.3912   6.7881   6.8058   7.0425   7.0440
     7.5201   7.5215

          k = 0.1250 0.3750 0.3750 ( 14736 PWs)   bands (ev):

    -3.1577  -2.6645  -2.6433  -2.1516  -1.6524  -1.1645  -1.1429  -0.6638
    -0.6472  -0.1694  -0.1491   0.3156   0.3367   0.3516   0.8245   0.8304
     1.7876   1.8014   1.8041   1.8259   2.2721   2.2870   2.2885   2.3108
     2.7684   2.7898   3.2527   3.2578   3.2807   3.2882   3.6879   3.7459
     3.7519   3.7684   4.1596   4.1806   4.2345   4.2407   4.6548   4.7054
     4.7270   5.1860   5.1926   5.2050   5.8338   6.1590   6.3157   6.3365
     6.6160   6.6220   6.6309   6.8060   7.0185   7.0400   7.4987   7.5063
     7.5703   7.5787

          k = 0.3750 0.3750 0.3750 ( 14784 PWs)   bands (ev):

    -2.9061  -2.4157  -2.4049  -2.3886  -1.9143  -1.9035  -1.8867  -1.4016
     0.5667   0.5775   0.5949   1.0496   1.0574   1.0701   1.0763   1.0811
     1.0992   1.5508   1.5619   1.5745   2.0347   2.0469   2.0578   2.5117
     2.5183   2.5306   2.5378   2.5444   2.5613   3.0035   3.0157   3.0308
     3.9892   4.0003   4.0174   4.4706   4.4829   4.4944   5.4127   5.4246
     5.4285   5.4339   5.4385   5.4486   5.8941   5.9039   5.9086   5.9130
     5.9176   5.9307   6.8384   6.8501   6.8624   7.3133   7.3227   7.3369
     7.3554   7.9154

          k =-0.1250-0.1250 0.1250 ( 14765 PWs)   bands (ev):

    -3.6622  -2.1706  -2.1524  -2.1333  -1.1718  -1.1533  -1.1340  -0.6732
    -0.6552  -0.6361   0.3021   0.3155   0.3265   0.3442   0.3541   0.3661
     0.8278   1.3003   1.3190   1.3376   1.7903   1.8003   1.8100   2.7907
     2.8014   2.8109   3.2019   3.2113   3.2205   3.7634   4.6161   4.6277
     4.6417   4.6575   4.6693   4.6802   5.3397   5.3502   5.3596   5.5820
     5.5986   5.6054   5.6070   5.6156   5.6269   6.0653   6.0842   6.1039
     6.7776   6.7916   6.7953   6.7988   6.8038   6.8201   7.0092   7.0290
     7.0358   7.0372

          k =-0.1250 0.1250-0.1250 ( 14765 PWs)   bands (ev):

    -3.6622  -2.1715  -2.1596  -2.1247  -1.1726  -1.1610  -1.1256  -0.6744
    -0.6629  -0.6279   0.3057   0.3157   0.3289   0.3407   0.3463   0.3722
     0.8269   1.2996   1.3109   1.3463   1.7931   1.8003   1.8073   2.7940
     2.8015   2.8082   3.2046   3.2111   3.2177   3.7630   4.6201   4.6266
     4.6432   4.6546   4.6607   4.6875   5.3441   5.3504   5.3560   5.5818
     5.5903   5.5987   5.6133   5.6217   5.6289   6.0643   6.0763   6.1117
     6.7767   6.7842   6.7920   6.8052   6.8126   6.8187   7.0093   7.0197
     7.0275   7.0445

          k = 0.1250-0.1250-0.1250 ( 14765 PWs)   bands (ev):

    -3.6622  -2.1697  -2.1515  -2.1352  -1.1707  -1.1524  -1.1359  -0.6726
    -0.6545  -0.6378   0.3080   0.3169   0.3339   0.3395   0.3454   0.3648
     0.8278   1.3009   1.3205   1.3357   1.7940   1.8008   1.8059   2.7949
     2.8012   2.8070   3.2055   3.2112   3.2168   3.7636   4.6230   4.6284
     4.6466   4.6527   4.6621   4.6797   5.3441   5.3493   5.3555   5.5878
     5.5938   5.6032   5.6074   5.6193   5.6241   6.0667   6.0849   6.1025
     6.7819   6.7868   6.7965   6.7996   6.8081   6.8146   7.0150   7.0223
     7.0347   7.0371

          k =-0.1250-0.1250 0.3750 ( 14752 PWs)   bands (ev):

    -3.4097  -2.9054  -1.9054  -1.8984  -1.4065  -1.3987  -0.9068  -0.9007
    -0.4191  -0.4048  -0.3983   0.0854   0.0913   0.5718   0.5907   1.0614
     1.0807   1.5523   1.5565   1.5667   1.5757   2.0449   2.5377   2.5432
     3.0146   3.0215   3.0431   3.4443   3.4600   3.9223   3.9379   3.9835
     3.9881   3.9954   4.0128   4.4746   4.8920   4.8955   4.9655   5.3647
     5.3706   5.4256   5.4453   5.5857   5.6020   5.8451   5.8475   6.0683
     6.0835   6.3200   6.3222   6.3913   6.7881   6.8053   7.0424   7.0448
     7.5200   7.5222

          k =-0.1250 0.1250-0.3750 ( 14752 PWs)   bands (ev):

    -3.4097  -2.9054  -1.9156  -1.8879  -1.4158  -1.3889  -0.9177  -0.8904
    -0.4233  -0.4164  -0.3826   0.0828   0.0931   0.5783   0.5846   1.0685
     1.0743   1.5460   1.5525   1.5630   1.5895   2.0447   2.5262   2.5551
     3.0051   3.0318   3.0417   3.4500   3.4545   3.9246   3.9322   3.9735
     3.9996   4.0027   4.0075   4.4743   4.8789   4.9083   4.9650   5.3536
     5.3796   5.4346   5.4394   5.5917   5.5967   5.8388   5.8525   6.0738
     6.0787   6.3147   6.3279   6.3911   6.7943   6.7990   7.0382   7.0490
     7.5154   7.5261

          k = 0.1250-0.1250-0.3750 ( 14752 PWs)   bands (ev):

    -3.4097  -2.9053  -1.9155  -1.8883  -1.4159  -1.3886  -0.9175  -0.8901
    -0.4252  -0.4063  -0.3913   0.0844   0.0913   0.5787   0.5845   1.0685
     1.0743   1.5441   1.5603   1.5650   1.5819   2.0443   2.5263   2.5547
     3.0046   3.0332   3.0417   3.4495   3.4546   3.9266   3.9328   3.9729
     3.9964   4.0008   4.0100   4.4751   4.8790   4.9079   4.9653   5.3535
     5.3815   5.4331   5.4392   5.5917   5.5966   5.8392   5.8531   6.0737
     6.0783   6.3146   6.3267   6.3917   6.7941   6.7991   7.0377   7.0486
     7.5157   7.5259

          k = 0.3750-0.1250 0.1250 ( 14752 PWs)   bands (ev):

    -3.4096  -2.9054  -1.9202  -1.8831  -1.4206  -1.3843  -0.9219  -0.8858
    -0.4279  -0.4079  -0.3866   0.0800   0.0959   0.5804   0.5824   1.0710
     1.0720   1.5421   1.5555   1.5669   1.5864   2.0440   2.5219   2.5596
     3.0006   3.0362   3.0423   3.4516   3.4528   3.9279   3.9308   3.9684
     4.0022   4.0044   4.0065   4.4746   4.8746   4.9125   4.9651   5.3493
     5.3866   5.4340   5.4365   5.5937   5.5948   5.8372   5.8550   6.0757
     6.0763   6.3119   6.3303   6.3904   6.7970   6.7977   7.0364   7.0505
     7.5138   7.5280

          k =-0.3750-0.1250-0.1250 ( 14752 PWs)   bands (ev):

    -3.4097  -2.9053  -1.9127  -1.8913  -1.4130  -1.3921  -0.9143  -0.8929
    -0.4262  -0.4054  -0.3901   0.0804   0.0959   0.5780   0.5844   1.0683
     1.0741   1.5421   1.5574   1.5694   1.5813   2.0444   2.5308   2.5508
     3.0086   3.0292   3.0420   3.4492   3.4548   3.9254   3.9314   3.9762
     3.9972   4.0010   4.0082   4.4761   4.8830   4.9037   4.9658   5.3573
     5.3769   5.4318   5.4401   5.5913   5.5969   5.8407   5.8510   6.0731
     6.0785   6.3162   6.3264   6.3908   6.7943   6.7999   7.0396   7.0474
     7.5168   7.5248

          k = 0.3750 0.1250-0.1250 ( 14752 PWs)   bands (ev):

    -3.4097  -2.9053  -1.9202  -1.8835  -1.4206  -1.3841  -0.9219  -0.8854
    -0.4259  -0.4101  -0.3867   0.0821   0.0935   0.5807   0.5820   1.0712
     1.0723   1.5446   1.5527   1.5675   1.5859   2.0443   2.5219   2.5590
     3.0005   3.0347   3.0442   3.4513   3.4523   3.9286   3.9311   3.9682
     3.9999   4.0044   4.0083   4.4756   4.8746   4.9122   4.9652   5.3494
     5.3864   5.4348   5.4366   5.5936   5.5947   5.8370   5.8548   6.0758
     6.0765   6.3118   6.3300   6.3906   6.7960   6.7976   7.0363   7.0505
     7.5137   7.5284

          k =-0.3750 0.1250 0.1250 ( 14752 PWs)   bands (ev):

    -3.4096  -2.9054  -1.9126  -1.8913  -1.4132  -1.3919  -0.9142  -0.8934
    -0.4234  -0.4043  -0.3940   0.0790   0.0975   0.5784   0.5841   1.0675
     1.0745   1.5440   1.5594   1.5671   1.5805   2.0442   2.5304   2.5504
     3.0079   3.0281   3.0438   3.4497   3.4550   3.9263   3.9327   3.9760
     3.9938   4.0033   4.0074   4.4753   4.8835   4.9044   4.9653   5.3573
     5.3789   5.4316   5.4377   5.5915   5.5968   5.8411   5.8512   6.0731
     6.0782   6.3159   6.3264   6.3908   6.7935   6.8006   7.0395   7.0477
     7.5171   7.5249

          k =-0.1250 0.3750 0.1250 ( 14752 PWs)   bands (ev):

    -3.4096  -2.9055  -1.9031  -1.9006  -1.4040  -1.4011  -0.9050  -0.9027
    -0.4139  -0.4082  -0.3997   0.0725   0.1029   0.5767   0.5865   1.0669
     1.0760   1.5435   1.5621   1.5670   1.5780   2.0453   2.5390   2.5413
     3.0172   3.0198   3.0428   3.4477   3.4559   3.9231   3.9327   3.9833
     3.9855   4.0024   4.0117   4.4759   4.8917   4.8948   4.9656   5.3667
     5.3701   5.4301   5.4386   5.5908   5.5987   5.8467   5.8472   6.0714
     6.0785   6.3211   6.3227   6.3910   6.7921   6.8008   7.0430   7.0435
     7.5203   7.5211

          k =-0.1250-0.3750-0.1250 ( 14752 PWs)   bands (ev):

    -3.4097  -2.9054  -1.9099  -1.8938  -1.4107  -1.3947  -0.9121  -0.8946
    -0.4198  -0.4088  -0.3943   0.0814   0.0936   0.5751   0.5887   1.0650
     1.0779   1.5515   1.5546   1.5634   1.5816   2.0446   2.5312   2.5493
     3.0106   3.0255   3.0437   3.4458   3.4576   3.9229   3.9369   3.9753
     3.9917   3.9994   4.0127   4.4764   4.8849   4.9018   4.9652   5.3603
     5.3744   5.4301   5.4422   5.5881   5.5992   5.8443   5.8506   6.0701
     6.0807   6.3181   6.3247   6.3916   6.7892   6.8028   7.0399   7.0465
     7.5172   7.5238

          k = 0.1250 0.3750-0.1250 ( 14752 PWs)   bands (ev):

    -3.4096  -2.9055  -1.9032  -1.9004  -1.4041  -1.4012  -0.9047  -0.9027
    -0.4171  -0.4079  -0.3973   0.0779   0.0975   0.5770   0.5865   1.0667
     1.0760   1.5471   1.5571   1.5675   1.5793   2.0454   2.5387   2.5416
     3.0160   3.0202   3.0431   3.4475   3.4561   3.9249   3.9332   3.9842
     3.9850   4.0008   4.0108   4.4758   4.8922   4.8950   4.9653   5.3660
     5.3702   5.4300   5.4403   5.5903   5.5978   5.8455   5.8483   6.0716
     6.0789   6.3211   6.3227   6.3909   6.7918   6.8007   7.0427   7.0442
     7.5206   7.5208

          k = 0.1250-0.3750 0.1250 ( 14752 PWs)   bands (ev):

    -3.4096  -2.9056  -1.9100  -1.8933  -1.4104  -1.3947  -0.9124  -0.8959
    -0.4179  -0.4133  -0.3905   0.0813   0.0941   0.5750   0.5878   1.0652
     1.0785   1.5485   1.5572   1.5622   1.5825   2.0456   2.5313   2.5487
     3.0108   3.0258   3.0428   3.4456   3.4578   3.9240   3.9365   3.9767
     3.9919   3.9993   4.0114   4.4754   4.8847   4.9020   4.9650   5.3595
     5.3768   5.4289   5.4427   5.5882   5.5992   5.8424   5.8500   6.0699
     6.0809   6.3191   6.3262   6.3909   6.7894   6.8030   7.0406   7.0466
     7.5178   7.5232

          k =-0.1250-0.3750 0.3750 ( 14736 PWs)   bands (ev):

    -3.1576  -2.6721  -2.6356  -2.1518  -1.6523  -1.1716  -1.1359  -0.6615
    -0.6493  -0.1780  -0.1404   0.3158   0.3316   0.3554   0.8272   0.8289
     1.7840   1.8022   1.8051   1.8260   2.2688   2.2886   2.2912   2.3116
     2.7599   2.7974   3.2559   3.2562   3.2834   3.2846   3.6907   3.7370
     3.7508   3.7753   4.1518   4.1884   4.2370   4.2380   4.6546   4.6972
     4.7353   5.1823   5.1957   5.2054   5.8340   6.1598   6.3072   6.3442
     6.6128   6.6229   6.6339   6.8047   7.0100   7.0477   7.5022   7.5043
     7.5682   7.5834

          k =-0.1250 0.3750-0.3750 ( 14736 PWs)   bands (ev):

    -3.1575  -2.6721  -2.6356  -2.1519  -1.6519  -1.1715  -1.1354  -0.6640
    -0.6477  -0.1780  -0.1408   0.3140   0.3337   0.3557   0.8274   0.8287
     1.7847   1.8007   1.8047   1.8276   2.2689   2.2874   2.2922   2.3121
     2.7598   2.7964   3.2547   3.2555   3.2839   3.2860   3.6894   3.7378
     3.7516   3.7752   4.1518   4.1889   4.2364   4.2371   4.6554   4.6975
     4.7354   5.1832   5.1965   5.2041   5.8339   6.1591   6.3076   6.3443
     6.6159   6.6198   6.6337   6.8050   7.0098   7.0480   7.5024   7.5037
     7.5681   7.5836

          k = 0.1250-0.3750-0.3750 ( 14736 PWs)   bands (ev):

    -3.1577  -2.6645  -2.6433  -2.1517  -1.6522  -1.1643  -1.1427  -0.6651
    -0.6466  -0.1693  -0.1494   0.3188   0.3370   0.3486   0.8243   0.8306
     1.7885   1.8026   1.8073   1.8203   2.2729   2.2882   2.2928   2.3054
     2.7677   2.7894   3.2520   3.2571   3.2821   3.2887   3.6892   3.7462
     3.7518   3.7661   4.1595   4.1809   4.2346   4.2403   4.6553   4.7055
     4.7271   5.1858   5.1930   5.2050   5.8340   6.1594   6.3153   6.3363
     6.6150   6.6228   6.6309   6.8051   7.0190   7.0402   7.4986   7.5066
     7.5702   7.5795

          k = 0.3750 0.1250-0.3750 ( 14736 PWs)   bands (ev):

    -3.1576  -2.6554  -2.6527  -2.1521  -1.6518  -1.1543  -1.1518  -0.6655
    -0.6460  -0.1614  -0.1588   0.3237   0.3352   0.3444   0.8235   0.8330
     1.7933   1.8007   1.8092   1.8157   2.2792   2.2864   2.2931   2.3018
     2.7762   2.7791   3.2489   3.2583   3.2812   3.2900   3.6893   3.7523
     3.7557   3.7588   4.1690   4.1716   4.2321   4.2413   4.6541   4.7154
     4.7176   5.1900   5.1907   5.2043   5.8343   6.1592   6.3244   6.3276
     6.6177   6.6246   6.6273   6.8053   7.0278   7.0309   7.4961   7.5080
     7.5738   7.5762

          k =-0.3750-0.1250-0.3750 ( 14736 PWs)   bands (ev):

    -3.1576  -2.6620  -2.6460  -2.1521  -1.6519  -1.1613  -1.1452  -0.6614
    -0.6498  -0.1682  -0.1512   0.3217   0.3332   0.3480   0.8218   0.8348
     1.7912   1.7977   1.8080   1.8202   2.2779   2.2825   2.2933   2.3073
     2.7692   2.7871   3.2490   3.2632   3.2774   3.2901   3.6904   3.7481
     3.7521   3.7647   4.1616   4.1781   4.2297   4.2439   4.6538   4.7077
     4.7250   5.1876   5.1922   5.2055   5.8344   6.1594   6.3173   6.3347
     6.6167   6.6221   6.6316   6.8052   7.0199   7.0372   7.4948   7.5111
     7.5717   7.5790

          k = 0.3750-0.1250 0.3750 ( 14736 PWs)   bands (ev):

    -3.1575  -2.6620  -2.6461  -2.1523  -1.6513  -1.1613  -1.1449  -0.6621
    -0.6497  -0.1684  -0.1519   0.3235   0.3293   0.3506   0.8219   0.8353
     1.7882   1.8001   1.8104   1.8193   2.2748   2.2855   2.2955   2.3060
     2.7695   2.7855   3.2490   3.2618   3.2775   3.2898   3.6905   3.7477
     3.7526   3.7643   4.1617   4.1797   4.2295   4.2433   4.6550   4.7072
     4.7247   5.1881   5.1944   5.2042   5.8339   6.1589   6.3174   6.3347
     6.6184   6.6217   6.6288   6.8051   7.0208   7.0380   7.4953   7.5105
     7.5711   7.5816

          k =-0.3750 0.1250 0.3750 ( 14736 PWs)   bands (ev):

    -3.1576  -2.6554  -2.6527  -2.1521  -1.6517  -1.1544  -1.1519  -0.6702
    -0.6412  -0.1615  -0.1588   0.3277   0.3339   0.3416   0.8237   0.8329
     1.7931   1.8037   1.8099   1.8118   2.2791   2.2883   2.2955   2.2976
     2.7766   2.7792   3.2457   3.2553   3.2837   3.2936   3.6886   3.7526
     3.7554   3.7595   4.1691   4.1716   4.2323   4.2414   4.6542   4.7147
     4.7177   5.1893   5.1906   5.2050   5.8343   6.1596   6.3241   6.3276
     6.6163   6.6250   6.6278   6.8060   7.0279   7.0302   7.4962   7.5067
     7.5745   7.5771

          k = 0.3750-0.3750 0.1250 ( 14736 PWs)   bands (ev):

    -3.1575  -2.6675  -2.6405  -2.1523  -1.6516  -1.1666  -1.1397  -0.6611
    -0.6507  -0.1737  -0.1456   0.3183   0.3254   0.3594   0.8253   0.8312
     1.7842   1.7972   1.8081   1.8289   2.2698   2.2818   2.2945   2.3143
     2.7645   2.7912   3.2532   3.2590   3.2805   3.2864   3.6888   3.7417
     3.7515   3.7730   4.1564   4.1845   4.2341   4.2389   4.6553   4.7017
     4.7304   5.1844   5.1949   5.2054   5.8342   6.1581   6.3120   6.3410
     6.6144   6.6230   6.6323   6.8050   7.0151   7.0433   7.4994   7.5073
     7.5686   7.5808

          k =-0.3750-0.3750-0.1250 ( 14736 PWs)   bands (ev):

    -3.1576  -2.6572  -2.6508  -2.1520  -1.6518  -1.1576  -1.1494  -0.6640
    -0.6471  -0.1625  -0.1567   0.3213   0.3366   0.3460   0.8182   0.8370
     1.7869   1.8032   1.8087   1.8203   2.2719   2.2878   2.2943   2.3048
     2.7761   2.7814   3.2467   3.2635   3.2751   3.2938   3.6891   3.7502
     3.7551   3.7600   4.1675   4.1733   4.2287   4.2462   4.6544   4.7128
     4.7188   5.1877   5.1908   5.2059   5.8340   6.1594   6.3233   6.3287
     6.6144   6.6261   6.6292   6.8057   7.0258   7.0325   7.4902   7.5131
     7.5736   7.5777

          k = 0.3750 0.3750-0.1250 ( 14736 PWs)   bands (ev):

    -3.1576  -2.6573  -2.6508  -2.1521  -1.6517  -1.1572  -1.1494  -0.6595
    -0.6520  -0.1631  -0.1566   0.3229   0.3373   0.3441   0.8183   0.8369
     1.7890   1.8019   1.8088   1.8198   2.2745   2.2859   2.2933   2.3055
     2.7750   2.7814   3.2482   3.2662   3.2731   3.2920   3.6906   3.7503
     3.7537   3.7591   4.1685   4.1728   4.2284   4.2456   4.6551   4.7135
     4.7183   5.1882   5.1900   5.2068   5.8339   6.1594   6.3231   6.3290
     6.6142   6.6243   6.6311   6.8042   7.0269   7.0327   7.4911   7.5141
     7.5742   7.5760

          k =-0.3750 0.3750 0.1250 ( 14736 PWs)   bands (ev):

    -3.1575  -2.6676  -2.6404  -2.1521  -1.6519  -1.1666  -1.1402  -0.6592
    -0.6520  -0.1736  -0.1451   0.3165   0.3352   0.3511   0.8251   0.8312
     1.7863   1.8000   1.8075   1.8237   2.2713   2.2850   2.2939   2.3098
     2.7646   2.7924   3.2549   3.2595   3.2800   3.2856   3.6907   3.7425
     3.7511   3.7705   4.1564   4.1834   4.2344   4.2401   4.6541   4.7025
     4.7297   5.1836   5.1933   5.2073   5.8345   6.1594   6.3122   6.3397
     6.6129   6.6234   6.6342   6.8045   7.0144   7.0431   7.5002   7.5058
     7.5697   7.5811

          k =-0.3750-0.3750 0.3750 ( 14784 PWs)   bands (ev):

    -2.9059  -2.4215  -2.4031  -2.3843  -1.9200  -1.9016  -1.8828  -1.4017
     0.5609   0.5796   0.5984   1.0394   1.0533   1.0639   1.0818   1.0925
     1.1033   1.5524   1.5632   1.5728   2.0360   2.0462   2.0565   2.5008
     2.5142   2.5259   2.5436   2.5547   2.5650   2.9976   3.0166   3.0355
     3.9833   4.0016   4.0209   4.4723   4.4834   4.4932   5.4078   5.4252
     5.4303   5.4319   5.4384   5.4527   5.8882   5.9057   5.9105   5.9127
     5.9188   5.9330   6.8400   6.8501   6.8605   7.3080   7.3266   7.3412
     7.3535   7.9167

          k =-0.3750 0.3750-0.3750 ( 14784 PWs)   bands (ev):

    -2.9058  -2.4225  -2.4105  -2.3757  -1.9209  -1.9091  -1.8746  -1.4021
     0.5600   0.5718   0.6063   1.0432   1.0530   1.0670   1.0779   1.0838
     1.1099   1.5559   1.5635   1.5703   2.0388   2.0459   2.0533   2.5047
     2.5138   2.5279   2.5394   2.5465   2.5710   2.9964   3.0090   3.0445
     3.9826   3.9943   4.0281   4.4763   4.4830   4.4909   5.4079   5.4160
     5.4238   5.4383   5.4456   5.4532   5.8885   5.8973   5.9046   5.9198
     5.9272   5.9342   6.8418   6.8505   6.8568   7.3068   7.3186   7.3439
     7.3591   7.9191

          k = 0.3750-0.3750-0.3750 ( 14784 PWs)   bands (ev):

    -2.9060  -2.4206  -2.4024  -2.3861  -1.9191  -1.9009  -1.8843  -1.4018
     0.5623   0.5798   0.5966   1.0456   1.0551   1.0710   1.0765   1.0834
     1.1027   1.5567   1.5623   1.5688   2.0400   2.0465   2.0527   2.5073
     2.5155   2.5326   2.5385   2.5461   2.5636   2.9981   3.0180   3.0341
     3.9844   4.0026   4.0193   4.4765   4.4831   4.4892   5.4134   5.4206
     5.4290   5.4319   5.4426   5.4485   5.8934   5.9010   5.9108   5.9123
     5.9230   5.9281   6.8440   6.8500   6.8565   7.3093   7.3254   7.3365
     7.3584   7.9254

     the Fermi energy is     6.2266 ev

!    total energy              =   -1263.85549822 Ry
     Harris-Foulkes estimate   =   -1263.85549839 Ry
     estimated scf accuracy    <       0.00000020 Ry

     total all-electron energy =    -15540.424475 Ry

     The total energy is the sum of the following terms:

     one-electron contribution =      88.84453704 Ry
     hartree contribution      =       0.24231723 Ry
     xc contribution           =     -80.20507074 Ry
     ewald contribution        =    -163.40991559 Ry
     one-center paw contrib.   =   -1109.32787570 Ry
     smearing contrib. (-TS)   =       0.00050954 Ry

     convergence has been achieved in  10 iterations

     Forces acting on atoms (cartesian axes, Ry/au):

     atom    1 type  1   force =     0.00039713    0.00026093    0.00022360
     atom    2 type  1   force =     0.00167892   -0.00007413    0.00083814
     atom    3 type  1   force =    -0.00023673   -0.00116420    0.00126010
     atom    4 type  1   force =    -0.00260328   -0.00056548   -0.00120633
     atom    5 type  1   force =    -0.00178907    0.00068908    0.00033284
     atom    6 type  1   force =     0.00206969   -0.00054140   -0.00039411
     atom    7 type  1   force =    -0.00099634    0.00085191   -0.00019661
     atom    8 type  1   force =    -0.00173350   -0.00197883   -0.00235319
     atom    9 type  1   force =    -0.00055008    0.00133886    0.00028170
     atom   10 type  1   force =    -0.00182288   -0.00320749   -0.00227479
     atom   11 type  1   force =     0.00083026   -0.00078966   -0.00024407
     atom   12 type  1   force =    -0.00002024    0.00049791   -0.00002190
     atom   13 type  1   force =    -0.00206831   -0.00064446    0.00037972
     atom   14 type  1   force =     0.00003548    0.00133630   -0.00204476
     atom   15 type  1   force =     0.00121512    0.00268055    0.00299846
     atom   16 type  1   force =     0.00205476    0.00005137   -0.00014482
     atom   17 type  1   force =     0.00098721    0.00129094   -0.00048461
     atom   18 type  1   force =    -0.00040100    0.00141916    0.00249980
     atom   19 type  1   force =     0.00155635   -0.00004566    0.00028308
     atom   20 type  1   force =    -0.00045974    0.00151497   -0.00020089
     atom   21 type  1   force =    -0.00231033   -0.00068324   -0.00099741
     atom   22 type  1   force =     0.00319970    0.00059677    0.00037008
     atom   23 type  1   force =     0.00067658   -0.00027962   -0.00072351
     atom   24 type  1   force =    -0.00019916   -0.00040806    0.00063590
     atom   25 type  1   force =    -0.00077365    0.00125495    0.00045339
     atom   26 type  1   force =    -0.00115517   -0.00188855   -0.00003188
     atom   27 type  1   force =     0.00087583   -0.00012441   -0.00129952
     atom   28 type  1   force =     0.00139623   -0.00101448    0.00264678
     atom   29 type  1   force =    -0.00115343   -0.00049627   -0.00196277
     atom   30 type  1   force =     0.00025755    0.00111451   -0.00044763
     atom   31 type  1   force =     0.00049804   -0.00079328    0.00010046
     atom   32 type  1   force =     0.00054403   -0.00019897    0.00172473

     Total force =     0.012641     Total SCF correction =     0.000484


     Computing stress (Cartesian axis) and pressure

          total   stress  (Ry/bohr**3)                   (kbar)     P=  -87.16
  -0.00059227   0.00000024   0.00000038        -87.13      0.04      0.06
   0.00000024  -0.00059277   0.00000025          0.04    -87.20      0.04
   0.00000038   0.00000025  -0.00059251          0.06      0.04    -87.16


     Writing output data file AAA.save/

     init_run     :     49.07s CPU     51.39s WALL (       1 calls)
     electrons    :   1130.26s CPU   1167.03s WALL (       1 calls)
     forces       :     19.69s CPU     20.44s WALL (       1 calls)
     stress       :     66.90s CPU     67.70s WALL (       1 calls)

     Called by init_run:
     wfcinit      :     46.90s CPU     49.04s WALL (       1 calls)
     potinit      :      1.32s CPU      1.34s WALL (       1 calls)
     hinit0       :      0.65s CPU      0.67s WALL (       1 calls)

     Called by electrons:
     c_bands      :    967.15s CPU    998.45s WALL (      11 calls)
     sum_band     :    146.69s CPU    150.00s WALL (      11 calls)
     v_of_rho     :      3.00s CPU      3.03s WALL (      11 calls)
     newd         :      1.52s CPU      3.74s WALL (      11 calls)
     PAW_pot      :     12.53s CPU     12.55s WALL (      11 calls)
     mix_rho      :      0.43s CPU      0.43s WALL (      11 calls)

     Called by c_bands:
     init_us_2    :     11.18s CPU     11.32s WALL (     800 calls)
     cegterg      :    939.86s CPU    970.39s WALL (     352 calls)

     Called by sum_band:
     sum_band:bec :      0.06s CPU      0.08s WALL (     352 calls)
     addusdens    :      1.98s CPU      4.29s WALL (      11 calls)

     Called by *egterg:
     h_psi        :    684.83s CPU    702.53s WALL (    1282 calls)
     s_psi        :    113.08s CPU    113.92s WALL (    1282 calls)
     g_psi        :      2.40s CPU      2.46s WALL (     898 calls)
     cdiaghg      :     14.70s CPU     14.83s WALL (    1218 calls)

     Called by h_psi:
     h_psi:pot    :    683.21s CPU    688.64s WALL (    1282 calls)
     h_psi:calbec :    104.27s CPU    104.84s WALL (    1282 calls)
     vloc_psi     :    465.36s CPU    469.68s WALL (    1282 calls)
     add_vuspsi   :    113.57s CPU    114.11s WALL (    1282 calls)

     General routines
     calbec       :    162.04s CPU    163.04s WALL (    1794 calls)
     fft          :      2.12s CPU      2.13s WALL (     168 calls)
     ffts         :      0.15s CPU      0.16s WALL (      22 calls)
     fftw         :    498.83s CPU    503.17s WALL (  135532 calls)
     interpolate  :      0.25s CPU      0.26s WALL (      11 calls)

     Parallel routines
     fft_scatt_xy :    118.93s CPU    120.11s WALL (  135722 calls)
     fft_scatt_yz :     84.69s CPU     85.53s WALL (  135722 calls)

     PWSCF        : 21m 6.67s CPU    21m47.73s WALL


   This run was terminated on:  11:26:29  11Feb2019            

=------------------------------------------------------------------------------=
   JOB DONE.
=------------------------------------------------------------------------------=
