
     Program PWSCF v.6.3 starts on 22Apr2020 at  7:18:48 

     This program is part of the open-source Quantum ESPRESSO suite
     for quantum simulation of materials; please cite
         "P. Giannozzi et al., J. Phys.:Condens. Matter 21 395502 (2009);
         "P. Giannozzi et al., J. Phys.:Condens. Matter 29 465901 (2017);
          URL http://www.quantum-espresso.org", 
     in publications or presentations arising from this work. More details at
     http://www.quantum-espresso.org/quote

     Parallel version (MPI & OpenMP), running on      20 processor cores
     Number of MPI processes:                20
     Threads/MPI process:                     1

     MPI processes distributed on     1 nodes
     R & G space division:  proc/nbgrp/npool/nimage =      20
     Reading input from wd/configs/2/config_0002.in
Warning: card &IONS ignored
Warning: card ION_DYNAMICS = 'BFGS', ignored
Warning: card / ignored
Warning: card &CELL ignored
Warning: card CELL_DYNAMICS = 'BFGS', ignored
Warning: card CELL_FACTOR = 2.0, ignored
Warning: card PRESS = 0.0, ignored
Warning: card / ignored

     Current dimensions of program PWSCF are:
     Max number of different atomic species (ntypx) = 10
     Max number of k-points (npk) =  40000
     Max angular momentum in pseudopotentials (lmaxx) =  3
     Message from routine read_upf::
     Pseudo file /rds/homes/b/bxp912/pp/Al.pbe-nl-kjpaw_psl.1.0.0.UPF has been successfully fixed on the fly.
To avoid this message in the future you can permanently fix 
 your pseudo files following instructions given in: 
https://gitlab.com/QEF/q-e/blob/master/upftools/how_to_fix_upf.md
               file Al.pbe-nl-kjpaw_psl.1.0.0.UPF: wavefunction(s)  3S 3P renormalized

     Subspace diagonalization in iterative solution of the eigenvalue problem:
     a serial algorithm will be used

 
     Parallelization info
     --------------------
     sticks:   dense  smooth     PW     G-vecs:    dense   smooth      PW
     Min         185     185     51                 8489     8489    1228
     Max         186     186     53                 8494     8494    1231
     Sum        3705    3705   1033               169797   169797   24573
 


     bravais-lattice index     =            0
     lattice parameter (alat)  =      15.2616  a.u.
     unit-cell volume          =    3554.7074 (a.u.)^3
     number of atoms/cell      =           32
     number of atomic types    =            1
     number of electrons       =        96.00
     number of Kohn-Sham states=           58
     kinetic-energy cutoff     =      50.0000  Ry
     charge density cutoff     =     200.0000  Ry
     convergence threshold     =      1.0E-06
     mixing beta               =       0.1000
     number of iterations used =           10  TF        mixing
     Exchange-correlation      = SLA PW PBX PBC ( 1  4  3  4 0 0)

     celldm(1)=  15.261643  celldm(2)=   0.000000  celldm(3)=   0.000000
     celldm(4)=   0.000000  celldm(5)=   0.000000  celldm(6)=   0.000000

     crystal axes: (cart. coord. in units of alat)
               a(1) = (   1.000000   0.000000   0.000000 )  
               a(2) = (   0.000000   1.000000   0.000000 )  
               a(3) = (   0.000000   0.000000   1.000000 )  

     reciprocal axes: (cart. coord. in units 2 pi/alat)
               b(1) = (  1.000000  0.000000  0.000000 )  
               b(2) = (  0.000000  1.000000  0.000000 )  
               b(3) = (  0.000000  0.000000  1.000000 )  


     PseudoPot. # 1 for Al read from file:
     /rds/homes/b/bxp912/pp/Al.pbe-nl-kjpaw_psl.1.0.0.UPF
     MD5 check sum: 339dbea23cf3ab9a065ad45c0f9085d7
     Pseudo is Projector augmented-wave + core cor, Zval =  3.0
     Generated using "atomic" code by A. Dal Corso v.5.1
     Shape of augmentation charge: PSQ
     Using radial grid of 1135 points,  4 beta functions with: 
                l(1) =   0
                l(2) =   0
                l(3) =   1
                l(4) =   1
     Q(r) pseudized with 0 coefficients 


     atomic species   valence    mass     pseudopotential
        Al             3.00    26.98200     Al( 1.00)

     No symmetry found



   Cartesian axes

     site n.     atom                  positions (alat units)
         1           Al  tau(   1) = (  -0.0007206  -0.0006362  -0.0005191  )
         2           Al  tau(   2) = (   0.2495041   0.2489646  -0.0005145  )
         3           Al  tau(   3) = (   0.2491589  -0.0005942   0.2499361  )
         4           Al  tau(   4) = (  -0.0006953   0.2497825   0.2497124  )
         5           Al  tau(   5) = (  -0.0001433  -0.0001507   0.4991066  )
         6           Al  tau(   6) = (   0.2495838   0.2490097   0.4993519  )
         7           Al  tau(   7) = (   0.2494004  -0.0003473   0.7491207  )
         8           Al  tau(   8) = (  -0.0005453   0.2495722   0.7497653  )
         9           Al  tau(   9) = (  -0.0001800   0.4995605  -0.0006861  )
        10           Al  tau(  10) = (   0.2496241   0.7496974   0.0001560  )
        11           Al  tau(  11) = (   0.2497232   0.4995626   0.2498472  )
        12           Al  tau(  12) = (  -0.0005785   0.7494359   0.2493955  )
        13           Al  tau(  13) = (  -0.0004348   0.4996573   0.4995429  )
        14           Al  tau(  14) = (   0.2492728   0.7494713   0.4990859  )
        15           Al  tau(  15) = (   0.2500183   0.4989232   0.7487364  )
        16           Al  tau(  16) = (  -0.0013117   0.7487554   0.7493310  )
        17           Al  tau(  17) = (   0.4997524  -0.0008562  -0.0007327  )
        18           Al  tau(  18) = (   0.7491693   0.2495330  -0.0011218  )
        19           Al  tau(  19) = (   0.7486151  -0.0008471   0.2494991  )
        20           Al  tau(  20) = (   0.4992950   0.2492674   0.2490080  )
        21           Al  tau(  21) = (   0.4991869  -0.0000690   0.4992899  )
        22           Al  tau(  22) = (   0.7494816   0.2487360   0.4992493  )
        23           Al  tau(  23) = (   0.7494163  -0.0007926   0.7493961  )
        24           Al  tau(  24) = (   0.4993676   0.2491174   0.7493344  )
        25           Al  tau(  25) = (   0.4990497   0.4995761  -0.0010940  )
        26           Al  tau(  26) = (   0.7488891   0.7495405  -0.0001076  )
        27           Al  tau(  27) = (   0.7495463   0.4989481   0.2492371  )
        28           Al  tau(  28) = (   0.4995204   0.7489261   0.2497635  )
        29           Al  tau(  29) = (   0.4986966   0.4995503   0.4994256  )
        30           Al  tau(  30) = (   0.7496765   0.7493192   0.4990539  )
        31           Al  tau(  31) = (   0.7492390   0.4993637   0.7496236  )
        32           Al  tau(  32) = (   0.4993732   0.7492420   0.7491801  )

     number of k points=   666  Marzari-Vanderbilt smearing, width (Ry)=  0.0400

     Number of k-points >= 100: set verbosity='high' to print them.

     Dense  grid:   169797 G-vectors     FFT dimensions: (  72,  72,  72)

     Estimated max dynamical RAM per process >     654.56 MB

     Estimated total dynamical RAM >      12.78 GB

     Initial potential from superposition of free atoms

     starting charge   95.92671, renormalised to   96.00000
     Starting wfcs are  128 randomized atomic wfcs
     Checking if some PAW data can be deallocated... 

     total cpu time spent up to now is       97.9 secs

     Self-consistent Calculation

     iteration #  1     ecut=    50.00 Ry     beta= 0.10
     Davidson diagonalization with overlap
     ethr =  1.00E-02,  avg # of iterations =  3.1

     Threshold (ethr) on eigenvalues was too large:
     Diagonalizing with lowered threshold

     Davidson diagonalization with overlap
     ethr =  1.91E-04,  avg # of iterations =  4.7

     total cpu time spent up to now is      499.1 secs

     total energy              =   -1264.13130044 Ry
     Harris-Foulkes estimate   =   -1264.13754204 Ry
     estimated scf accuracy    <       0.17945515 Ry

     iteration #  2     ecut=    50.00 Ry     beta= 0.10
     Davidson diagonalization with overlap
     ethr =  1.87E-04,  avg # of iterations =  1.1

     total cpu time spent up to now is      619.2 secs

     total energy              =   -1264.08399997 Ry
     Harris-Foulkes estimate   =   -1264.13206522 Ry
     estimated scf accuracy    <       0.15581691 Ry

     iteration #  3     ecut=    50.00 Ry     beta= 0.10
     Davidson diagonalization with overlap
     ethr =  1.62E-04,  avg # of iterations =  1.0

     total cpu time spent up to now is      732.0 secs

     total energy              =   -1264.08691345 Ry
     Harris-Foulkes estimate   =   -1264.08702654 Ry
     estimated scf accuracy    <       0.00061796 Ry

     iteration #  4     ecut=    50.00 Ry     beta= 0.10
     Davidson diagonalization with overlap
     c_bands:  2 eigenvalues not converged
     c_bands:  2 eigenvalues not converged
     c_bands:  1 eigenvalues not converged
     c_bands:  2 eigenvalues not converged
     c_bands:  1 eigenvalues not converged
     c_bands:  1 eigenvalues not converged
     c_bands:  1 eigenvalues not converged
     c_bands:  1 eigenvalues not converged
     c_bands:  1 eigenvalues not converged
     c_bands:  1 eigenvalues not converged
     c_bands:  1 eigenvalues not converged
     c_bands:  1 eigenvalues not converged
     c_bands:  1 eigenvalues not converged
     c_bands:  2 eigenvalues not converged
     c_bands:  1 eigenvalues not converged
     c_bands:  2 eigenvalues not converged
     c_bands:  1 eigenvalues not converged
     c_bands:  2 eigenvalues not converged
     c_bands:  1 eigenvalues not converged
     c_bands:  2 eigenvalues not converged
     c_bands:  1 eigenvalues not converged
     c_bands:  1 eigenvalues not converged
     c_bands:  1 eigenvalues not converged
     ethr =  6.44E-07,  avg # of iterations =  6.9

     total cpu time spent up to now is     1004.3 secs

     total energy              =   -1264.08753723 Ry
     Harris-Foulkes estimate   =   -1264.08768280 Ry
     estimated scf accuracy    <       0.00037094 Ry

     iteration #  5     ecut=    50.00 Ry     beta= 0.10
     Davidson diagonalization with overlap
     c_bands:  1 eigenvalues not converged
     c_bands:  1 eigenvalues not converged
     c_bands:  1 eigenvalues not converged
     ethr =  3.86E-07,  avg # of iterations =  1.4

     total cpu time spent up to now is     1120.7 secs

     total energy              =   -1264.08730030 Ry
     Harris-Foulkes estimate   =   -1264.08754561 Ry
     estimated scf accuracy    <       0.00024678 Ry

     iteration #  6     ecut=    50.00 Ry     beta= 0.10
     Davidson diagonalization with overlap
     ethr =  2.57E-07,  avg # of iterations =  2.4

     total cpu time spent up to now is     1286.3 secs

     total energy              =   -1264.08737395 Ry
     Harris-Foulkes estimate   =   -1264.08737280 Ry
     estimated scf accuracy    <       0.00001244 Ry

     iteration #  7     ecut=    50.00 Ry     beta= 0.10
     Davidson diagonalization with overlap
     c_bands:  3 eigenvalues not converged
     c_bands:  3 eigenvalues not converged
     ethr =  1.30E-08,  avg # of iterations =  3.5

     total cpu time spent up to now is     1465.9 secs

     total energy              =   -1264.08736953 Ry
     Harris-Foulkes estimate   =   -1264.08737508 Ry
     estimated scf accuracy    <       0.00000586 Ry

     iteration #  8     ecut=    50.00 Ry     beta= 0.10
     Davidson diagonalization with overlap
     c_bands:  1 eigenvalues not converged
     ethr =  6.11E-09,  avg # of iterations =  2.9

     total cpu time spent up to now is     1639.6 secs

     total energy              =   -1264.08737085 Ry
     Harris-Foulkes estimate   =   -1264.08737052 Ry
     estimated scf accuracy    <       0.00000134 Ry

     iteration #  9     ecut=    50.00 Ry     beta= 0.10
     Davidson diagonalization with overlap
     c_bands:  1 eigenvalues not converged
     c_bands:  1 eigenvalues not converged
     ethr =  1.40E-09,  avg # of iterations =  2.0

     total cpu time spent up to now is     1774.3 secs

     End of self-consistent calculation

     Number of k-points >= 100: set verbosity='high' to print the bands.

     the Fermi energy is     7.9357 ev

!    total energy              =   -1264.08737066 Ry
     Harris-Foulkes estimate   =   -1264.08737091 Ry
     estimated scf accuracy    <       0.00000021 Ry

     total all-electron energy =    -15540.656393 Ry

     The total energy is the sum of the following terms:

     one-electron contribution =     101.38779894 Ry
     hartree contribution      =       0.19752952 Ry
     xc contribution           =     -82.94630497 Ry
     ewald contribution        =    -173.03954860 Ry
     one-center paw contrib.   =   -1109.68411259 Ry
     smearing contrib. (-TS)   =      -0.00273297 Ry

     convergence has been achieved in   9 iterations

     Forces acting on atoms (cartesian axes, Ry/au):

     atom    1 type  1   force =    -0.00006066    0.00000279    0.00004408
     atom    2 type  1   force =    -0.00018966    0.00047122    0.00016485
     atom    3 type  1   force =     0.00045168   -0.00001224   -0.00101748
     atom    4 type  1   force =    -0.00000270   -0.00040822   -0.00073310
     atom    5 type  1   force =    -0.00088617   -0.00072224    0.00063881
     atom    6 type  1   force =    -0.00034307    0.00077388   -0.00006804
     atom    7 type  1   force =    -0.00035214   -0.00106547    0.00064243
     atom    8 type  1   force =    -0.00008516   -0.00012297   -0.00054376
     atom    9 type  1   force =    -0.00003618   -0.00009882    0.00017783
     atom   10 type  1   force =    -0.00036897   -0.00020773   -0.00140182
     atom   11 type  1   force =    -0.00055952   -0.00056534   -0.00078932
     atom   12 type  1   force =    -0.00030456   -0.00000647   -0.00010723
     atom   13 type  1   force =    -0.00038205   -0.00063563   -0.00007858
     atom   14 type  1   force =    -0.00006781    0.00024778    0.00090232
     atom   15 type  1   force =    -0.00100412    0.00075557    0.00109726
     atom   16 type  1   force =     0.00130261    0.00097860    0.00039184
     atom   17 type  1   force =    -0.00078428    0.00011087    0.00013312
     atom   18 type  1   force =     0.00042182   -0.00017054    0.00074666
     atom   19 type  1   force =     0.00113145    0.00044447   -0.00021683
     atom   20 type  1   force =     0.00012561    0.00042689    0.00014299
     atom   21 type  1   force =     0.00033400   -0.00108139    0.00020933
     atom   22 type  1   force =    -0.00020461    0.00119939    0.00035903
     atom   23 type  1   force =     0.00022330   -0.00015504   -0.00031968
     atom   24 type  1   force =     0.00027755    0.00018934   -0.00004316
     atom   25 type  1   force =     0.00018613   -0.00030792    0.00064948
     atom   26 type  1   force =     0.00067311   -0.00050629   -0.00047990
     atom   27 type  1   force =    -0.00031323    0.00018761    0.00018499
     atom   28 type  1   force =    -0.00016472    0.00049579   -0.00019126
     atom   29 type  1   force =     0.00169499   -0.00062245   -0.00016959
     atom   30 type  1   force =    -0.00048668    0.00005782    0.00041768
     atom   31 type  1   force =    -0.00007761   -0.00016274   -0.00065816
     atom   32 type  1   force =    -0.00014836    0.00050948   -0.00008478

     Total force =     0.005481     Total SCF correction =     0.000395


     Computing stress (Cartesian axis) and pressure

          total   stress  (Ry/bohr**3)                   (kbar)     P=    0.62
   0.00000420  -0.00000000  -0.00000000          0.62     -0.00     -0.00
  -0.00000000   0.00000420   0.00000001         -0.00      0.62      0.00
  -0.00000000   0.00000001   0.00000419         -0.00      0.00      0.62


     Writing output data file CTXfrgOdtTXDcHqQ.save/
 
     init_run     :     95.20s CPU     97.35s WALL (       1 calls)
     electrons    :   1578.47s CPU   1676.43s WALL (       1 calls)
     forces       :     19.45s CPU     20.13s WALL (       1 calls)
     stress       :    126.30s CPU    126.95s WALL (       1 calls)

     Called by init_run:
     wfcinit      :     94.95s CPU     97.06s WALL (       1 calls)
     potinit      :      0.09s CPU      0.09s WALL (       1 calls)
     hinit0       :      0.11s CPU      0.13s WALL (       1 calls)

     Called by electrons:
     c_bands      :   1388.89s CPU   1481.27s WALL (      10 calls)
     sum_band     :    188.72s CPU    194.23s WALL (      10 calls)
     v_of_rho     :      0.15s CPU      0.15s WALL (      10 calls)
     newd         :      0.11s CPU      0.14s WALL (      10 calls)
     PAW_pot      :      0.64s CPU      0.65s WALL (      10 calls)
     mix_rho      :      0.04s CPU      0.05s WALL (      10 calls)

     Called by c_bands:
     init_us_2    :     27.90s CPU     28.59s WALL (   15318 calls)
     cegterg      :   1312.13s CPU   1339.66s WALL (    6660 calls)

     Called by sum_band:
     sum_band:bec :      0.78s CPU      0.80s WALL (    6660 calls)
     addusdens    :      0.08s CPU      0.11s WALL (      10 calls)

     Called by *egterg:
     h_psi        :    968.80s CPU    992.37s WALL (   26768 calls)
     s_psi        :     90.88s CPU     91.44s WALL (   26768 calls)
     g_psi        :      5.17s CPU      5.20s WALL (   19442 calls)
     cdiaghg      :    156.81s CPU    157.67s WALL (   25436 calls)

     Called by h_psi:
     h_psi:pot    :    964.55s CPU    988.06s WALL (   26768 calls)
     h_psi:calbec :     95.81s CPU    100.93s WALL (   26768 calls)
     vloc_psi     :    778.62s CPU    796.49s WALL (   26768 calls)
     add_vuspsi   :     89.88s CPU     90.46s WALL (   26768 calls)

     General routines
     calbec       :    143.46s CPU    151.23s WALL (   36758 calls)
     fft          :      0.19s CPU      0.21s WALL (     137 calls)
     ffts         :      0.01s CPU      0.01s WALL (      10 calls)
     fftw         :    847.97s CPU    866.99s WALL ( 2597952 calls)
 
     Parallel routines
     fft_scatt_xy :     84.26s CPU     86.14s WALL ( 2598099 calls)
     fft_scatt_yz :    419.06s CPU    429.24s WALL ( 2598099 calls)
 
     PWSCF        : 30m36.46s CPU    33m21.94s WALL

 
   This run was terminated on:   7:52:10  22Apr2020            

=------------------------------------------------------------------------------=
   JOB DONE.
=------------------------------------------------------------------------------=
